#     Step Nr.          Time[fs]        Kin.[a.u.]          Temp[K]            Pot.[a.u.]        Cons Qty[a.u.]        UsedTime[s]
         0            0.000000         0.273612846       300.000000000     -1102.629448594     -1102.355835748         0.000000000
         1            0.500000         0.279633819       306.601634918     -1102.634728487     -1102.356032711        45.058194663
         2            1.000000         0.278176228       305.003473713     -1102.643688340     -1102.356285322         7.221254874
         3            1.500000         0.280393422       307.434492997     -1102.653080703     -1102.356547289         7.234898105
         4            2.000000         0.282889483       310.171274159     -1102.655862600     -1102.356593452         7.257792845
         5            2.500000         0.294372846       322.762089256     -1102.653391721     -1102.356505399         7.234145969
         6            3.000000         0.293202260       321.478612092     -1102.644027094     -1102.356292113         7.241847470
         7            3.500000         0.275739443       302.331685376     -1102.631056927     -1102.356023130         7.206248857
         8            4.000000         0.264614578       290.133941924     -1102.619771042     -1102.355795899         7.308431916
         9            4.500000         0.268857948       294.786540953     -1102.613634927     -1102.355689469         7.241949461
        10            5.000000         0.262607548       287.933354685     -1102.612082629     -1102.355666725        10.191135541
        11            5.500000         0.288697192       316.539076467     -1102.616775792     -1102.355783250         7.203277487
        12            6.000000         0.295096611       323.555654134     -1102.622813260     -1102.355937950         7.173519630
        13            6.500000         0.289353988       317.259214176     -1102.629250655     -1102.356081233         7.219065372
        14            7.000000         0.287416783       315.135185470     -1102.637410482     -1102.356246228         7.195045087
        15            7.500000         0.310165102       340.077346930     -1102.641761748     -1102.356328622         7.632916845
        16            8.000000         0.323802738       355.030192819     -1102.645349103     -1102.356402515         7.308329191
        17            8.500000         0.301956868       331.077513241     -1102.645418760     -1102.356418530         7.206354391
        18            9.000000         0.286912673       314.582459298     -1102.641734958     -1102.356310656         7.193332355
        19            9.500000         0.276541909       303.211541919     -1102.635703652     -1102.356123440         7.215120219
        20           10.000000         0.260847091       286.003119536     -1102.628436222     -1102.355915126        10.710472494
        21           10.500000         0.250829117       275.019014031     -1102.621372875     -1102.355688604         7.216671653
        22           11.000000         0.252589683       276.949368713     -1102.619839890     -1102.355630752         7.179547746
        23           11.500000         0.254712048       279.276413740     -1102.626571548     -1102.355823251         7.233991124
        24           12.000000         0.265639894       291.258138723     -1102.636526005     -1102.356020668         7.198899720
        25           12.500000         0.277078124       303.799469221     -1102.645826859     -1102.356189502         7.180009004
        26           13.000000         0.276140999       302.771967344     -1102.652591961     -1102.356272544         7.176248800
        27           13.500000         0.297663960       326.370597939     -1102.655384720     -1102.356219451         7.152628388
        28           14.000000         0.292250721       320.435307919     -1102.655692042     -1102.356103565         7.200281005
        29           14.500000         0.281400579       308.538780420     -1102.654888372     -1102.356028025         7.197564434
        30           15.000000         0.286612223       314.253034546     -1102.651854052     -1102.355941964        10.880863514
        31           15.500000         0.301188497       330.235039789     -1102.649497290     -1102.355883179         7.200651538
        32           16.000000         0.299504682       328.388838219     -1102.646731418     -1102.355818637         7.189697497
        33           16.500000         0.291057519       319.127033606     -1102.645976761     -1102.355750903         7.246292569
        34           17.000000         0.291210761       319.295053980     -1102.647476574     -1102.355705892         7.172118094
        35           17.500000         0.303751951       333.045713179     -1102.652982102     -1102.355823547         7.163813725
        36           18.000000         0.299220135       328.076849934     -1102.659956618     -1102.356048442         7.175385036
        37           18.500000         0.316528355       347.054270077     -1102.662878593     -1102.356180240         7.198822118
        38           19.000000         0.312059887       342.154864507     -1102.660507582     -1102.356202008         7.165872473
        39           19.500000         0.316171730       346.663252967     -1102.656115673     -1102.356078685         7.496916976
        40           20.000000         0.299355453       328.225217601     -1102.648878514     -1102.355890093        10.369462296
        41           20.500000         0.290515955       318.533241422     -1102.643145712     -1102.355773629         7.258647908
        42           21.000000         0.292335239       320.527976607     -1102.641775355     -1102.355839829         7.216434356
        43           21.500000         0.292864229       321.107981598     -1102.641696945     -1102.355896983         7.254369929
        44           22.000000         0.298441806       327.223458585     -1102.641498294     -1102.355927731         7.179167535
        45           22.500000         0.281584966       308.740950017     -1102.641249503     -1102.355973007         7.174629729
        46           23.000000         0.268647469       294.555763713     -1102.638733432     -1102.355935123         7.160658769
        47           23.500000         0.272321768       298.584410955     -1102.640558486     -1102.355980954         7.153410409
        48           24.000000         0.280027628       307.033422556     -1102.643886369     -1102.356039317         7.216223128
        49           24.500000         0.277870189       304.667920803     -1102.647866085     -1102.356127491         7.195999730
        50           25.000000         0.275189966       301.729217684     -1102.650936078     -1102.356256634        11.189421061
        51           25.500000         0.260569407       285.698655714     -1102.652308206     -1102.356346909         7.163625874
        52           26.000000         0.260067903       285.148786102     -1102.653011744     -1102.356342919         7.183428641
        53           26.500000         0.259523824       284.552236394     -1102.650868573     -1102.356222289         7.185483068
        54           27.000000         0.258216561       283.118901724     -1102.649712215     -1102.356088336         7.207878377
        55           27.500000         0.252322957       276.656919568     -1102.649573181     -1102.356007795         7.194656294
        56           28.000000         0.250219224       274.350303125     -1102.654470790     -1102.356129352         7.190902293
        57           28.500000         0.266792766       292.522193684     -1102.663219866     -1102.356395973         7.209847547
        58           29.000000         0.270022295       296.063177828     -1102.667565255     -1102.356510507         7.190261781
        59           29.500000         0.272968396       299.293400089     -1102.671480487     -1102.356565130         7.161185216
        60           30.000000         0.276980269       303.692176295     -1102.671991386     -1102.356537916        10.683940168
        61           30.500000         0.274619786       301.104049797     -1102.671363550     -1102.356500826         7.174410399
        62           31.000000         0.274218381       300.663932521     -1102.668392698     -1102.356435724         7.171555165
        63           31.500000         0.278232801       305.065502826     -1102.666314114     -1102.356430160         7.196259692
        64           32.000000         0.291317859       319.412480537     -1102.662998567     -1102.356351195         7.192005575
        65           32.500000         0.287118339       314.807959572     -1102.660598886     -1102.356288021         7.167176075
        66           33.000000         0.277406894       304.159944898     -1102.656416776     -1102.356161111         7.215757199
        67           33.500000         0.269359451       295.336408691     -1102.654625485     -1102.356095346         7.223292459
        68           34.000000         0.284279324       311.695150794     -1102.655748156     -1102.356119225         7.177042510
        69           34.500000         0.307167002       336.790110299     -1102.663050205     -1102.356274076         7.162264578
        70           35.000000         0.309877738       339.762269572     -1102.668570830     -1102.356387568        11.536028482
        71           35.500000         0.306403989       335.953513258     -1102.670562621     -1102.356379401         7.199784204
        72           36.000000         0.294675470       323.093898242     -1102.671396058     -1102.356341667         7.230204292
        73           36.500000         0.304358645       333.710916780     -1102.670834857     -1102.356309045         7.176071517
        74           37.000000         0.291807604       319.949456255     -1102.670878157     -1102.356269137         7.217396013
        75           37.500000         0.308475946       338.225288705     -1102.673067446     -1102.356292656         7.213216834
        76           38.000000         0.283414248       310.746646682     -1102.675533624     -1102.356355391         7.203845333
        77           38.500000         0.281646563       308.808486783     -1102.678692285     -1102.356429445         7.158298310
        78           39.000000         0.287676450       315.419895249     -1102.682841958     -1102.356525077         7.181701947
        79           39.500000         0.296160721       324.722386508     -1102.682175598     -1102.356498364         7.178040218
        80           40.000000         0.285683813       313.235088653     -1102.677974318     -1102.356356637        10.217412364
        81           40.500000         0.307988658       337.691007621     -1102.673529462     -1102.356219005         7.242727678
        82           41.000000         0.283636192       310.989995645     -1102.670246716     -1102.356145174         7.232963044
        83           41.500000         0.292098231       320.268111452     -1102.671499341     -1102.356216322         7.209350884
        84           42.000000         0.319349960       350.147990617     -1102.673448769     -1102.356302368         7.271392398
        85           42.500000         0.324155512       355.416988732     -1102.673504057     -1102.356347537         7.180306472
        86           43.000000         0.300808653       329.818564681     -1102.671330785     -1102.356328113         7.210431334
        87           43.500000         0.297078691       325.728885646     -1102.670057303     -1102.356340372         7.262375463
        88           44.000000         0.300955400       329.979463577     -1102.669580757     -1102.356351231         7.225414332
        89           44.500000         0.292778428       321.013906599     -1102.667336026     -1102.356316568         7.194517020
        90           45.000000         0.274898758       301.409925937     -1102.662884544     -1102.356238183        10.127121251
        91           45.500000         0.273692113       300.086912077     -1102.659033483     -1102.356178724         7.221265480
        92           46.000000         0.263519393       288.933136857     -1102.657525460     -1102.356128008         7.276521891
        93           46.500000         0.271944812       298.171101600     -1102.657041021     -1102.356118620         7.192280203
        94           47.000000         0.261193256       286.382668676     -1102.659305313     -1102.356168408         7.208758518
        95           47.500000         0.268739647       294.656831480     -1102.662257239     -1102.356248589         7.222534612
        96           48.000000         0.277668876       304.447192794     -1102.659258383     -1102.356183994         7.238911711
        97           48.500000         0.283957697       311.342506709     -1102.654190135     -1102.356020721         7.192683611
        98           49.000000         0.275837644       302.439357540     -1102.649218764     -1102.355862121         7.212669093
        99           49.500000         0.271452640       297.631464532     -1102.647594551     -1102.355828560         7.231241740
       100           50.000000         0.259610339       284.647095631     -1102.650520153     -1102.355935729        10.320588835
       101           50.500000         0.269993665       296.031786957     -1102.655543128     -1102.356078933         7.181710795
       102           51.000000         0.273117442       299.456819301     -1102.661215689     -1102.356201154         7.175442975
       103           51.500000         0.272037750       298.273002340     -1102.662388408     -1102.356193925         7.252695471
       104           52.000000         0.271881612       298.101806460     -1102.660090195     -1102.356086814         7.233697671
       105           52.500000         0.261329875       286.532462964     -1102.656857315     -1102.355953450         7.175223783
       106           53.000000         0.257851077       282.718170422     -1102.658945705     -1102.356019583         7.243053034
       107           53.500000         0.267209384       292.978989626     -1102.663842534     -1102.356194618         7.198910140
       108           54.000000         0.273131830       299.472595150     -1102.669023867     -1102.356369503         7.255069517
       109           54.500000         0.279496678       306.451267896     -1102.674150739     -1102.356461531         7.189569537
       110           55.000000         0.269132455       295.087521462     -1102.673751209     -1102.356425879         9.702127904
       111           55.500000         0.265321275       290.908791904     -1102.669773159     -1102.356314786         7.259711776
       112           56.000000         0.277186419       303.918208076     -1102.664105670     -1102.356152559         7.213244494
       113           56.500000         0.266558642       292.265491164     -1102.660314495     -1102.356062526         7.182398204
       114           57.000000         0.280536149       307.590985113     -1102.656732764     -1102.356020482         7.214969568
       115           57.500000         0.282306491       309.532058375     -1102.656574487     -1102.356046989         7.204542987
       116           58.000000         0.276445203       303.105509345     -1102.655533039     -1102.356057184         7.992170677
       117           58.500000         0.269101032       295.053067725     -1102.657561844     -1102.356124044         7.184570797
       118           59.000000         0.278950016       305.851885600     -1102.659062945     -1102.356186541         7.180191141
       119           59.500000         0.294719772       323.142473298     -1102.658528241     -1102.356217954         7.322515655
       120           60.000000         0.290998392       319.062204390     -1102.655979178     -1102.356187313         9.779522676
       121           60.500000         0.289410294       317.320949829     -1102.654228474     -1102.356152654         7.246963147
       122           61.000000         0.293512506       321.818778241     -1102.654109831     -1102.356151272         7.204398762
       123           61.500000         0.289798790       317.746912284     -1102.653635858     -1102.356160746         7.185992371
       124           62.000000         0.290653255       318.683782530     -1102.653659111     -1102.356198626         7.232950073
       125           62.500000         0.293504719       321.810240662     -1102.655324883     -1102.356286393         7.191745140
       126           63.000000         0.289107767       316.989247314     -1102.655456745     -1102.356322046         7.198331654
       127           63.500000         0.294780902       323.209498695     -1102.654167649     -1102.356305419         7.293668497
       128           64.000000         0.277753610       304.540099089     -1102.648018535     -1102.356152763         7.308367711
       129           64.500000         0.272443653       298.718050182     -1102.641070811     -1102.355999393         7.189746466
       130           65.000000         0.271228323       297.385514249     -1102.637696521     -1102.355926513         9.976790879
       131           65.500000         0.275557079       302.131734360     -1102.638538183     -1102.355950547         7.213201649
       132           66.000000         0.285389151       312.912008988     -1102.644284875     -1102.356092329         7.270805970
       133           66.500000         0.292997469       321.254071339     -1102.648624646     -1102.356233841         7.173306908
       134           67.000000         0.294247756       322.624936363     -1102.650661681     -1102.356313493         7.203102876
       135           67.500000         0.300078568       329.018069689     -1102.651084352     -1102.356309325         7.238858137
       136           68.000000         0.302756321       331.954064659     -1102.649784365     -1102.356222999         7.250930324
       137           68.500000         0.297596561       326.296698897     -1102.647359811     -1102.356156656         7.159632672
       138           69.000000         0.273927561       300.345066394     -1102.645769829     -1102.356207648         7.220977571
       139           69.500000         0.267163874       292.929091310     -1102.643835930     -1102.356259859         7.204271141
       140           70.000000         0.278498842       305.357200792     -1102.644009474     -1102.356288923        10.044560123
       141           70.500000         0.264609756       290.128654227     -1102.640916239     -1102.356210461         7.166057285
       142           71.000000         0.275848792       302.451580456     -1102.635774083     -1102.356094080         7.170234762
       143           71.500000         0.257052117       281.842158324     -1102.632946463     -1102.356075802         7.217117768
       144           72.000000         0.282505137       309.749861274     -1102.631876147     -1102.356088042         7.199645869
       145           72.500000         0.285412026       312.937090135     -1102.632540281     -1102.356152565         7.160643905
       146           73.000000         0.278504406       305.363300670     -1102.634513394     -1102.356274715         7.261497401
       147           73.500000         0.279110664       306.028026236     -1102.636342969     -1102.356431654         7.205014832
       148           74.000000         0.292500076       320.708709662     -1102.634719075     -1102.356475181         7.187205199
       149           74.500000         0.296903692       325.537010211     -1102.627935583     -1102.356328849         7.157466557
       150           75.000000         0.294694717       323.115002181     -1102.618372039     -1102.356041840         9.551747728
       151           75.500000         0.285454708       312.983888442     -1102.610707746     -1102.355830728         8.125419058
       152           76.000000         0.274948938       301.464944640     -1102.605851609     -1102.355771048         7.231485471
       153           76.500000         0.269066412       295.015108935     -1102.603421611     -1102.355775819         7.173310984
       154           77.000000         0.252638696       277.003108757     -1102.602446022     -1102.355782216         7.208655883
       155           77.500000         0.252647810       277.013101395     -1102.604834151     -1102.355809262         7.176431358
       156           78.000000         0.248309625       272.256543615     -1102.609458628     -1102.355888298         7.186999224
       157           78.500000         0.263643246       289.068934214     -1102.618092984     -1102.356068239         7.203681257
       158           79.000000         0.280238876       307.265043560     -1102.626226479     -1102.356274483         7.220669158
       159           79.500000         0.291873840       320.022079840     -1102.629618419     -1102.356369292         7.273387086
       160           80.000000         0.292840236       321.081675425     -1102.629537860     -1102.356366097        10.159280326
       161           80.500000         0.275709444       302.298793632     -1102.624362509     -1102.356219823         7.180347428
       162           81.000000         0.275928971       302.539491706     -1102.618502255     -1102.356033296         7.229816385
       163           81.500000         0.280755945       307.831977661     -1102.614171334     -1102.355879773         7.214329086
       164           82.000000         0.272626752       298.918808175     -1102.615104811     -1102.355867588         7.224399235
       165           82.500000         0.267272391       293.048073140     -1102.617988395     -1102.355932335         7.221286733
       166           83.000000         0.264907763       290.455401376     -1102.625436236     -1102.356139894         7.233892698
       167           83.500000         0.275420911       301.982434378     -1102.634211182     -1102.356366479         7.311144959
       168           84.000000         0.282405050       309.640122482     -1102.638226653     -1102.356462593         7.165153362
       169           84.500000         0.274897739       301.408808364     -1102.638711398     -1102.356486486         7.187527500
       170           85.000000         0.283703054       311.063305140     -1102.637262371     -1102.356480571        10.288301442
       171           85.500000         0.261963500       287.227193876     -1102.633265789     -1102.356423526         7.171259269
       172           86.000000         0.259472849       284.496345443     -1102.629518237     -1102.356379038         7.959912233
       173           86.500000         0.267708242       293.525958215     -1102.627344047     -1102.356343868         7.936706163
       174           87.000000         0.268115341       293.972317143     -1102.623903783     -1102.356270201         7.195632096
       175           87.500000         0.254198932       278.713813394     -1102.623240174     -1102.356269032         7.271286082
       176           88.000000         0.258181565       283.080530238     -1102.622985675     -1102.356292320         7.204496924
       177           88.500000         0.259792583       284.846914476     -1102.622778382     -1102.356273750         7.180788700
       178           89.000000         0.264476004       289.982003330     -1102.624436219     -1102.356306102         8.075092901
       179           89.500000         0.278601463       305.469718507     -1102.627970408     -1102.356390687         7.220306095
       180           90.000000         0.289147778       317.033117776     -1102.632555860     -1102.356500100        11.979612332
       181           90.500000         0.294313017       322.696490847     -1102.632866272     -1102.356507931         7.198625445
       182           91.000000         0.285612919       313.157357767     -1102.632410569     -1102.356439970         7.189474542
       183           91.500000         0.294955011       323.400398734     -1102.627983284     -1102.356247809         7.208023652
       184           92.000000         0.286660397       314.305853668     -1102.623820162     -1102.356076665         7.221130110
       185           92.500000         0.271400567       297.574369420     -1102.623813010     -1102.356073205         7.183687240
       186           93.000000         0.289497032       317.416053348     -1102.625702760     -1102.356156846         7.187486704
       187           93.500000         0.284196744       311.604606921     -1102.629628818     -1102.356262886         7.193901740
       188           94.000000         0.294053970       322.412461091     -1102.634304738     -1102.356360046         7.232656740
       189           94.500000         0.293051471       321.313282029     -1102.636546602     -1102.356392267         7.185124516
       190           95.000000         0.281779962       308.954751015     -1102.635920826     -1102.356342666        10.986679111
       191           95.500000         0.270764375       296.876823998     -1102.632599542     -1102.356243037         7.211639039
       192           96.000000         0.256738944       281.498783710     -1102.629646260     -1102.356173930         7.198806446
       193           96.500000         0.264883403       290.428691983     -1102.628836784     -1102.356164966         7.221506190
       194           97.000000         0.266318455       292.002140624     -1102.633475777     -1102.356247911         7.204098634
       195           97.500000         0.278640185       305.512174891     -1102.637926609     -1102.356291810         7.191874616
       196           98.000000         0.282456238       309.696247321     -1102.642045995     -1102.356316372         7.196407780
       197           98.500000         0.279775903       306.757421138     -1102.643919928     -1102.356336400         7.170928318
       198           99.000000         0.272874532       299.190483353     -1102.644839924     -1102.356363966         7.210355073
       199           99.500000         0.268573168       294.474296586     -1102.643768437     -1102.356347692         7.300883669
       200          100.000000         0.273775586       300.178435425     -1102.641159050     -1102.356265959        11.227134299
       201          100.500000         0.265499410       291.104107160     -1102.637896514     -1102.356173781         7.181081504
       202          101.000000         0.271745325       297.952376372     -1102.638600089     -1102.356198448         7.194207557
       203          101.500000         0.284190552       311.597817146     -1102.638957693     -1102.356180573         7.287509438
       204          102.000000         0.289889960       317.846875211     -1102.640799071     -1102.356145639         7.294470884
       205          102.500000         0.297267991       325.936441973     -1102.645175893     -1102.356164191         7.199715987
       206          103.000000         0.299784115       328.695220355     -1102.651038075     -1102.356283349         7.982181422
       207          103.500000         0.293296828       321.582300528     -1102.655585724     -1102.356380959         7.197872974
       208          104.000000         0.300971909       329.997564362     -1102.656368630     -1102.356420015         7.206367765
       209          104.500000         0.293104029       321.370908150     -1102.655457076     -1102.356410951         7.212450549
       210          105.000000         0.284571131       312.015099484     -1102.651698729     -1102.356377824        10.455667086
       211          105.500000         0.284128194       311.529445849     -1102.644157621     -1102.356203031         7.188455071
       212          106.000000         0.275368689       301.925176520     -1102.639230081     -1102.356072683         7.219269119
       213          106.500000         0.273173955       299.518782921     -1102.635773453     -1102.355986967         7.221803982
       214          107.000000         0.281202961       308.322104384     -1102.634530048     -1102.355979883         7.241269954
       215          107.500000         0.276054946       302.677615899     -1102.637166910     -1102.356070090         7.204503410
       216          108.000000         0.285995083       313.576376788     -1102.641485012     -1102.356197814         7.187962011
       217          108.500000         0.294487574       322.887881651     -1102.645655168     -1102.356294283         7.218903460
       218          109.000000         0.281512642       308.661650836     -1102.648727558     -1102.356393338         7.216395032
       219          109.500000         0.279274735       306.207920748     -1102.648766432     -1102.356425670         7.703458216
       220          110.000000         0.295203424       323.672768036     -1102.646923519     -1102.356349520        12.208375290
       221          110.500000         0.287431216       315.151010380     -1102.642928586     -1102.356199022         7.221513160
       222          111.000000         0.265366288       290.958146616     -1102.637121994     -1102.356018176         7.279929657
       223          111.500000         0.265559966       291.170502480     -1102.633444991     -1102.355895426         7.191643458
       224          112.000000         0.271190006       297.343501931     -1102.635517788     -1102.355957352         7.187258866
       225          112.500000         0.286729421       314.381534469     -1102.640625660     -1102.356093974         7.270567741
       226          113.000000         0.284954913       312.435893392     -1102.643639348     -1102.356146494         7.207519587
       227          113.500000         0.299878900       328.799145752     -1102.648836225     -1102.356240046         7.188492894