ITEM: TIMESTEP
100000
ITEM: NUMBER OF ATOMS
400
ITEM: BOX BOUNDS pp pp pp
0.0000000000000000e+00 2.2360679774997898e+01
0.0000000000000000e+00 2.2360679774997898e+01
-5.5901699437494745e-01 5.5901699437494745e-01
ITEM: ATOMS id type xs ys zs
140 1 0.0115008 0.916686 0.5
363 1 0.161611 0.959208 0.5
19 1 0.184813 0.0118722 0.5
87 1 0.34101 0.149992 0.5
308 1 0.506059 0.0805135 0.5
86 1 0.579848 0.0855416 0.5
56 1 0.609613 0.87927 0.5
310 1 0.591049 0.0188767 0.5
255 1 0.696368 0.969688 0.5
72 1 0.798181 0.909737 0.5
324 1 0.795336 0.958382 0.5
383 1 0.875239 0.00773592 0.5
26 1 0.846457 0.0413338 0.5
145 1 0.0145331 0.108912 0.5
133 1 0.0672499 0.0428946 0.5
170 1 0.185747 0.078735 0.5
251 1 0.434793 1.00005 0.5
375 1 0.549671 0.0532223 0.5
384 1 0.514242 0.137063 0.5
322 1 0.70037 0.885052 0.5
237 1 0.805519 0.125402 0.5
73 1 0.892785 0.967255 0.5
156 1 0.92096 0.00848771 0.5
14 1 0.974538 0.0805939 0.5
64 1 0.0234522 0.00613827 0.5
374 1 0.134446 0.116566 0.5
215 1 0.145916 0.0608868 0.5
305 1 0.310742 0.075641 0.5
348 1 0.266581 0.0970626 0.5
174 1 0.425697 0.0856468 0.5
52 1 0.616181 0.926116 0.5
114 1 0.595193 0.963575 0.5
124 1 0.589222 0.131912 0.5
285 1 0.629354 0.0765259 0.5
142 1 0.841614 0.155229 0.5
351 1 0.76501 0.0154039 0.5
41 1 0.88417 0.0994307 0.5
10 1 0.212983 0.119465 0.5
283 1 0.0916245 0.994299 0.5
164 1 0.248984 0.967333 0.5
101 1 0.533396 0.99776 0.5
106 1 0.476182 0.160764 0.5
130 1 0.509664 0.208408 0.5
262 1 0.673809 0.013892 0.5
231 1 0.883057 0.167323 0.5
274 1 0.800157 0.0628859 0.5
63 1 0.937725 0.163002 0.5
257 1 0.93784 0.119012 0.5
260 1 0.0827865 0.126384 0.5
54 1 0.0723344 0.19723 0.5
287 1 0.216238 0.168402 0.5
385 1 0.364629 0.244073 0.5
346 1 0.477585 0.03459 0.5
53 1 0.631007 0.151181 0.5
129 1 0.585975 0.174959 0.5
292 1 0.80231 0.176054 0.5
299 1 0.825474 0.22692 0.5
388 1 0.888666 0.0541853 0.5
152 1 0.991822 0.149317 0.5
276 1 0.171048 0.149557 0.5
399 1 0.170941 0.194304 0.5
83 1 0.301051 0.125604 0.5
23 1 0.373683 0.100343 0.5
51 1 0.414193 0.0449159 0.5
221 1 0.45822 0.119371 0.5
131 1 0.612736 0.216522 0.5
296 1 0.559231 0.21267 0.5
294 1 0.692183 0.141394 0.5
306 1 0.758864 0.20032 0.5
259 1 0.838649 0.0976776 0.5
202 1 0.913698 0.264338 0.5
61 1 0.971847 0.264082 0.5
187 1 0.13033 0.211301 0.5
117 1 0.276465 0.0356653 0.5
353 1 0.303791 0.185396 0.5
38 1 0.410339 0.248689 0.5
314 1 0.716587 0.177804 0.5
37 1 0.665882 0.0572845 0.5
178 1 0.708826 0.0454694 0.5
216 1 0.780103 0.239581 0.5
250 1 0.945018 0.220637 0.5
99 1 0.99239 0.223522 0.5
93 1 0.0877983 0.239788 0.5
284 1 0.128043 0.259898 0.5
153 1 0.217673 0.224334 0.5
347 1 0.27292 0.219386 0.5
367 1 0.307196 0.24362 0.5
248 1 0.465158 0.209901 0.5
311 1 0.656776 0.200957 0.5
9 1 0.705635 0.0965097 0.5
190 1 0.657733 0.111224 0.5
144 1 0.885614 0.218781 0.5
208 1 0.0455874 0.152924 0.5
25 1 0.0702187 0.29161 0.5
239 1 0.0937608 0.327493 0.5
297 1 0.202378 0.275613 0.5
80 1 0.261424 0.361153 0.5
60 1 0.16515 0.23703 0.5
47 1 0.322977 0.3782 0.5
233 1 0.415563 0.20277 0.5
379 1 0.347349 0.341978 0.5
16 1 0.365134 0.195513 0.5
8 1 0.39427 0.139706 0.5
183 1 0.528783 0.310335 0.5
85 1 0.770225 0.0996063 0.5
307 1 0.662503 0.312522 0.5
279 1 0.751972 0.329274 0.5
330 1 0.750557 0.271615 0.5
243 1 0.902222 0.346298 0.5
1 1 0.184261 0.441764 0.5
108 1 0.262439 0.159084 0.5
203 1 0.291982 0.286278 0.5
57 1 0.342047 0.282688 0.5
136 1 0.42639 0.305368 0.5
398 1 0.591202 0.256437 0.5
295 1 0.620394 0.298555 0.5
159 1 0.0396604 0.222926 0.5
169 1 0.85712 0.258643 0.5
342 1 0.140741 0.302673 0.5
168 1 0.19757 0.335425 0.5
79 1 0.254554 0.263033 0.5
334 1 0.309419 0.42067 0.5
88 1 0.403439 0.439731 0.5
193 1 0.385542 0.317596 0.5
177 1 0.414864 0.389586 0.5
160 1 0.490028 0.339196 0.5
119 1 0.718265 0.238017 0.5
278 1 0.749544 0.144353 0.5
370 1 0.70724 0.294388 0.5
34 1 0.893793 0.391569 0.5
95 1 0.97299 0.306696 0.5
365 1 0.30557 0.327777 0.5
263 1 0.130234 0.473247 0.5
213 1 0.228165 0.427408 0.5
68 1 0.27122 0.405646 0.5
315 1 0.357296 0.518058 0.5
143 1 0.317021 0.564819 0.5
230 1 0.527283 0.254474 0.5
349 1 0.466793 0.295768 0.5
194 1 0.663499 0.248228 0.5
109 1 0.634988 0.407574 0.5
89 1 0.8587 0.304511 0.5
11 1 0.00170613 0.342008 0.5
161 1 0.150261 0.388811 0.5
179 1 0.221483 0.384018 0.5
268 1 0.214828 0.510124 0.5
12 1 0.174943 0.494845 0.5
286 1 0.311535 0.520527 0.5
395 1 0.36738 0.380117 0.5
94 1 0.326113 0.468747 0.5
361 1 0.476979 0.251902 0.5
247 1 0.500889 0.384957 0.5
196 1 0.449456 0.361641 0.5
158 1 0.574501 0.294949 0.5
261 1 0.529688 0.355655 0.5
304 1 0.586672 0.337706 0.5
333 1 0.942581 0.44195 0.5
18 1 0.021987 0.276844 0.5
214 1 0.237294 0.308755 0.5
267 1 0.169834 0.538689 0.5
340 1 0.280066 0.461739 0.5
265 1 0.416311 0.484696 0.5
148 1 0.623022 0.362295 0.5
96 1 0.706718 0.339918 0.5
271 1 0.93 0.309154 0.5
17 1 0.0103487 0.390055 0.5
392 1 0.139621 0.430505 0.5
91 1 0.0502018 0.546846 0.5
320 1 0.233691 0.469091 0.5
245 1 0.118039 0.61792 0.5
44 1 0.183118 0.598376 0.5
154 1 0.270097 0.504059 0.5
326 1 0.353588 0.427117 0.5
323 1 0.432 0.569331 0.5
210 1 0.478726 0.529039 0.5
298 1 0.554058 0.419217 0.5
172 1 0.677994 0.390257 0.5
135 1 0.647416 0.494806 0.5
141 1 0.803378 0.28427 0.5
369 1 0.820473 0.325921 0.5
290 1 0.947509 0.396645 0.5
157 1 0.945781 0.352649 0.5
397 1 0.045286 0.355889 0.5
252 1 0.0542824 0.447602 0.5
123 1 0.158336 0.721994 0.5
389 1 0.0629778 0.491976 0.5
195 1 0.20773 0.641899 0.5
104 1 0.390058 0.555976 0.5
336 1 0.373179 0.473465 0.5
134 1 0.467193 0.469652 0.5
78 1 0.4665 0.419681 0.5
246 1 0.571014 0.379883 0.5
228 1 0.710125 0.481 0.5
43 1 0.0518249 0.400739 0.5
345 1 0.0984542 0.371931 0.5
189 1 0.124197 0.519427 0.5
269 1 0.424364 0.528123 0.5
182 1 0.50344 0.495255 0.5
266 1 0.504106 0.438468 0.5
192 1 0.686731 0.438386 0.5
167 1 0.740667 0.370328 0.5
302 1 0.861306 0.34644 0.5
66 1 0.90751 0.473726 0.5
238 1 0.139953 0.346928 0.5
112 1 0.012307 0.440477 0.5
359 1 0.0955845 0.42603 0.5
35 1 0.134096 0.574912 0.5
40 1 0.275823 0.821681 0.5
4 1 0.286442 0.594753 0.5
115 1 0.319774 0.626499 0.5
275 1 0.561746 0.511495 0.5
272 1 0.617305 0.44884 0.5
132 1 0.729799 0.425433 0.5
49 1 0.676299 0.533897 0.5
280 1 0.0396373 0.602449 0.5
163 1 0.0862305 0.57912 0.5
24 1 0.0551626 0.644851 0.5
242 1 0.234319 0.606989 0.5
188 1 0.277522 0.650291 0.5
28 1 0.402568 0.663824 0.5
381 1 0.360721 0.588588 0.5
2 1 0.541695 0.468696 0.5
21 1 0.531572 0.606983 0.5
155 1 0.597738 0.487357 0.5
74 1 0.654363 0.570052 0.5
5 1 0.829639 0.500455 0.5
81 1 0.82603 0.383203 0.5
328 1 0.982433 0.469977 0.5
312 1 0.0199091 0.493572 0.5
191 1 0.000260405 0.570151 0.5
387 1 0.96437 0.610466 0.5
185 1 0.255985 0.726102 0.5
184 1 0.490087 0.61952 0.5
98 1 0.52599 0.537198 0.5
151 1 0.783617 0.355609 0.5
352 1 0.781485 0.404954 0.5
332 1 0.0100985 0.818139 0.5
76 1 0.0916127 0.671314 0.5
121 1 0.160794 0.636864 0.5
212 1 0.339938 0.67165 0.5
288 1 0.240244 0.546741 0.5
55 1 0.364754 0.633139 0.5
200 1 0.499314 0.6839 0.5
110 1 0.563823 0.569802 0.5
289 1 0.411622 0.607165 0.5
70 1 0.702812 0.573863 0.5
173 1 0.735195 0.621673 0.5
377 1 0.762567 0.512028 0.5
118 1 0.755644 0.569159 0.5
293 1 0.800041 0.544275 0.5
175 1 0.876679 0.506711 0.5
207 1 0.280495 0.774258 0.5
373 1 0.34713 0.752399 0.5
162 1 0.176673 0.678232 0.5
386 1 0.22927 0.681072 0.5
378 1 0.499837 0.729444 0.5
120 1 0.479387 0.573091 0.5
273 1 0.606048 0.531044 0.5
354 1 0.833777 0.574526 0.5
206 1 0.786143 0.474614 0.5
84 1 0.885114 0.434316 0.5
396 1 0.942621 0.500536 0.5
319 1 0.950803 0.768918 0.5
229 1 0.932493 0.66834 0.5
58 1 0.972674 0.53009 0.5
15 1 0.00693263 0.644044 0.5
186 1 0.448312 0.686702 0.5
105 1 0.436327 0.80278 0.5
335 1 0.698092 0.662112 0.5
171 1 0.912513 0.541551 0.5
240 1 0.820769 0.438752 0.5
36 1 0.987522 0.694647 0.5
318 1 0.128419 0.691897 0.5
198 1 0.0293371 0.681351 0.5
277 1 0.0480657 0.758198 0.5
258 1 0.357494 0.805076 0.5
220 1 0.29464 0.689475 0.5
222 1 0.361453 0.710162 0.5
139 1 0.453139 0.756251 0.5
317 1 0.478458 0.806183 0.5
337 1 0.579147 0.64438 0.5
29 1 0.444173 0.633908 0.5
127 1 0.701223 0.711675 0.5
366 1 0.870795 0.55224 0.5
62 1 0.121205 0.810143 0.5
103 1 0.178923 0.86198 0.5
223 1 0.423303 0.722435 0.5
149 1 0.402056 0.77524 0.5
390 1 0.574516 0.913069 0.5
46 1 0.59312 0.797158 0.5
197 1 0.740189 0.73214 0.5
199 1 0.605804 0.583011 0.5
128 1 0.676998 0.607864 0.5
32 1 0.909369 0.627972 0.5
226 1 0.808777 0.663177 0.5
165 1 0.86092 0.654398 0.5
344 1 0.144674 0.769497 0.5
264 1 0.0209414 0.725432 0.5
338 1 0.305695 0.737487 0.5
146 1 0.398511 0.841597 0.5
331 1 0.379002 0.892696 0.5
100 1 0.702644 0.759506 0.5
357 1 0.622111 0.665711 0.5
137 1 0.760927 0.660593 0.5
166 1 0.909893 0.752441 0.5
176 1 0.912027 0.859094 0.5
39 1 0.939031 0.573852 0.5
270 1 0.07249 0.711129 0.5
291 1 0.044337 0.851241 0.5
27 1 0.191875 0.751348 0.5
205 1 0.428501 0.879513 0.5
3 1 0.308096 0.85941 0.5
33 1 0.532913 0.65198 0.5
201 1 0.781651 0.770533 0.5
77 1 0.779998 0.70754 0.5
356 1 0.79842 0.614122 0.5
376 1 0.947609 0.723085 0.5
372 1 0.00724165 0.869536 0.5
227 1 0.908675 0.812217 0.5
371 1 0.00648357 0.767484 0.5
393 1 0.21863 0.886661 0.5
181 1 0.233881 0.786706 0.5
50 1 0.290192 0.943936 0.5
321 1 0.224972 0.844573 0.5
107 1 0.450383 0.961249 0.5
204 1 0.641981 0.799522 0.5
224 1 0.660112 0.693352 0.5
7 1 0.700617 0.805741 0.5
150 1 0.632375 0.621237 0.5
300 1 0.867828 0.598681 0.5
147 1 0.873915 0.786932 0.5
122 1 0.180084 0.906042 0.5
341 1 0.136834 0.0143863 0.5
48 1 0.174375 0.808576 0.5
236 1 0.372824 0.95171 0.5
6 1 0.35059 0.851805 0.5
249 1 0.545412 0.699769 0.5
211 1 0.891033 0.6925 0.5
90 1 0.875441 0.904122 0.5
327 1 0.871269 0.861766 0.5
126 1 0.968605 0.825042 0.5
92 1 0.0519127 0.809129 0.5
125 1 0.0207925 0.962849 0.5
254 1 0.0757731 0.947271 0.5
22 1 0.34459 0.920327 0.5
362 1 0.362305 0.00730058 0.5
217 1 0.415739 0.925395 0.5
382 1 0.58252 0.84204 0.5
65 1 0.636026 0.845455 0.5
69 1 0.679314 0.841891 0.5
400 1 0.841139 0.693151 0.5
113 1 0.814318 0.734722 0.5
30 1 0.754743 0.917198 0.5
368 1 0.828846 0.783749 0.5
309 1 0.134485 0.867943 0.5
301 1 0.0663671 0.905498 0.5
343 1 0.0991912 0.763205 0.5
82 1 0.329235 0.963623 0.5
234 1 0.301606 0.995861 0.5
20 1 0.372469 0.0498887 0.5
102 1 0.53008 0.826892 0.5
256 1 0.649672 0.755551 0.5
59 1 0.544289 0.766831 0.5
138 1 0.707601 0.927028 0.5
241 1 0.742652 0.826356 0.5
235 1 0.974224 0.940554 0.5
75 1 0.980777 0.990529 0.5
339 1 0.776834 0.86226 0.5
45 1 0.260833 0.87063 0.5
303 1 0.249163 0.919421 0.5
67 1 0.464942 0.918832 0.5
218 1 0.454702 0.84362 0.5
219 1 0.513693 0.90814 0.5
71 1 0.807715 0.00946987 0.5
116 1 0.823996 0.855965 0.5
360 1 0.863515 0.738815 0.5
13 1 0.792534 0.819941 0.5
111 1 0.96455 0.0321845 0.5
325 1 0.0142856 0.0580327 0.5
355 1 0.11793 0.957133 0.5
42 1 0.0894665 0.0828078 0.5
350 1 0.107517 0.903267 0.5
209 1 0.31552 0.802183 0.5
391 1 0.32693 0.0352929 0.5
180 1 0.495573 0.953031 0.5
225 1 0.549901 0.955434 0.5
316 1 0.496185 0.868159 0.5
31 1 0.551031 0.87167 0.5
253 1 0.663392 0.938668 0.5
232 1 0.591123 0.733489 0.5
313 1 0.646362 0.979418 0.5
380 1 0.921955 0.925279 0.5
282 1 0.955735 0.870176 0.5
281 1 0.940784 0.968065 0.5
358 1 0.931985 0.062025 0.5
97 1 0.227526 0.0230338 0.5
364 1 0.206213 0.940672 0.5
329 1 0.658059 0.890114 0.5
244 1 0.852754 0.952306 0.5
394 1 0.747639 0.971513 0.5
