ITEM: TIMESTEP
100000
ITEM: NUMBER OF ATOMS
400
ITEM: BOX BOUNDS pp pp pp
0.0000000000000000e+00 2.3904572186687872e+01
0.0000000000000000e+00 2.3904572186687872e+01
-5.9761430466719678e-01 5.9761430466719678e-01
ITEM: ATOMS id type xs ys zs
286 1 0.925201 0.151002 0.5
287 1 0.135813 0.89384 0.5
106 1 0.246287 0.924111 0.5
357 1 0.358009 0.13067 0.5
295 1 0.434342 0.0308358 0.5
34 1 0.686915 0.0241457 0.5
15 1 0.615216 0.0612957 0.5
140 1 0.593026 0.101871 0.5
324 1 0.753011 0.0677952 0.5
372 1 0.768999 0.998695 0.5
92 1 0.789028 0.0964705 0.5
95 1 0.818332 0.0115669 0.5
329 1 0.0102958 0.897807 0.5
66 1 0.306363 0.0570139 0.5
188 1 0.11755 0.038486 0.5
42 1 0.291254 0.999013 0.5
318 1 0.237213 0.978309 0.5
289 1 0.383286 0.889165 0.5
184 1 0.334056 0.0214229 0.5
383 1 0.227796 0.138621 0.5
61 1 0.425115 0.0780484 0.5
175 1 0.733831 0.0168426 0.5
24 1 0.668461 0.0667042 0.5
105 1 0.807343 0.930529 0.5
366 1 0.801844 0.281578 0.5
179 1 0.0301194 0.939786 0.5
83 1 0.0773796 0.950774 0.5
268 1 0.277924 0.957296 0.5
47 1 0.17646 0.875775 0.5
35 1 0.394758 0.106474 0.5
377 1 0.563142 0.0608291 0.5
399 1 0.659592 0.122156 0.5
125 1 0.926314 0.211464 0.5
112 1 0.0606574 0.994581 0.5
237 1 0.172477 0.980067 0.5
209 1 0.131863 0.0761819 0.5
231 1 0.174686 0.0200022 0.5
278 1 0.242299 0.0903113 0.5
330 1 0.46567 0.0654956 0.5
113 1 0.458042 0.123407 0.5
5 1 0.445132 0.167135 0.5
20 1 0.761056 0.313853 0.5
390 1 0.639978 0.207892 0.5
384 1 0.983373 0.143021 0.5
338 1 0.703725 0.108223 0.5
198 1 0.915684 0.0756824 0.5
131 1 0.0718426 0.0338681 0.5
134 1 0.273013 0.118742 0.5
240 1 0.39972 0.153566 0.5
274 1 0.2987 0.184373 0.5
264 1 0.488256 0.165553 0.5
373 1 0.552415 0.13167 0.5
311 1 0.519122 0.077927 0.5
364 1 0.704122 0.220575 0.5
4 1 0.885536 0.16593 0.5
176 1 0.998399 0.0147563 0.5
21 1 0.0897734 0.0723856 0.5
109 1 0.0953092 0.138635 0.5
229 1 0.186032 0.109467 0.5
32 1 0.148955 0.115959 0.5
102 1 0.255485 0.0302322 0.5
204 1 0.349916 0.192267 0.5
305 1 0.532757 0.166523 0.5
181 1 0.581618 0.985805 0.5
36 1 0.865802 0.313937 0.5
218 1 0.966847 0.24254 0.5
258 1 0.81226 0.154672 0.5
221 1 0.728666 0.169465 0.5
397 1 0.0588052 0.176247 0.5
194 1 0.9626 0.0382548 0.5
230 1 0.0590397 0.1082 0.5
214 1 0.011493 0.0926022 0.5
371 1 0.170221 0.0663916 0.5
172 1 0.208422 0.0432536 0.5
48 1 0.4997 0.11897 0.5
250 1 0.617776 0.284292 0.5
307 1 0.658092 0.250065 0.5
306 1 0.587239 0.193501 0.5
326 1 0.705811 0.260204 0.5
284 1 0.821008 0.211521 0.5
154 1 0.765876 0.191634 0.5
353 1 0.0300054 0.133314 0.5
269 1 0.0291416 0.0427274 0.5
150 1 0.100739 0.218264 0.5
177 1 0.229042 0.182626 0.5
169 1 0.600428 0.24477 0.5
246 1 0.659098 0.295584 0.5
381 1 0.890026 0.251664 0.5
224 1 0.630003 0.340854 0.5
368 1 0.76618 0.230528 0.5
396 1 0.962928 0.105102 0.5
111 1 0.0378725 0.224216 0.5
304 1 0.00469947 0.268071 0.5
2 1 0.125584 0.186719 0.5
344 1 0.279427 0.288257 0.5
11 1 0.320423 0.224222 0.5
335 1 0.411878 0.200179 0.5
365 1 0.474948 0.404168 0.5
210 1 0.682632 0.375966 0.5
337 1 0.00293169 0.314746 0.5
185 1 0.897659 0.113491 0.5
319 1 0.0503212 0.271689 0.5
207 1 0.0892326 0.255707 0.5
348 1 0.146876 0.230821 0.5
277 1 0.228973 0.227286 0.5
10 1 0.283852 0.241243 0.5
203 1 0.194418 0.268364 0.5
76 1 0.24274 0.31277 0.5
12 1 0.367207 0.292687 0.5
236 1 0.533197 0.241685 0.5
288 1 0.464427 0.210768 0.5
99 1 0.961678 0.374994 0.5
252 1 0.71675 0.298218 0.5
136 1 0.964559 0.32688 0.5
63 1 0.842215 0.0879687 0.5
393 1 0.76101 0.132815 0.5
98 1 0.138486 0.275491 0.5
87 1 0.171777 0.152204 0.5
70 1 0.610602 0.384083 0.5
44 1 0.750664 0.274001 0.5
129 1 0.870371 0.214729 0.5
31 1 0.0115002 0.372726 0.5
193 1 0.856061 0.129603 0.5
51 1 0.0619029 0.322017 0.5
88 1 0.061627 0.442924 0.5
165 1 0.149537 0.352411 0.5
145 1 0.185754 0.189239 0.5
297 1 0.19418 0.31442 0.5
356 1 0.391834 0.359324 0.5
257 1 0.326823 0.307721 0.5
53 1 0.5656 0.292268 0.5
157 1 0.614393 0.437152 0.5
162 1 0.829204 0.372973 0.5
202 1 0.873569 0.400668 0.5
86 1 0.0227363 0.419859 0.5
248 1 0.958297 0.285407 0.5
350 1 0.0590417 0.394519 0.5
101 1 0.152896 0.39636 0.5
18 1 0.20791 0.379355 0.5
75 1 0.278927 0.399376 0.5
394 1 0.441513 0.248733 0.5
119 1 0.64672 0.41078 0.5
375 1 0.681313 0.43511 0.5
94 1 0.786829 0.346174 0.5
1 1 0.84481 0.266176 0.5
123 1 0.125858 0.316132 0.5
271 1 0.099559 0.354274 0.5
59 1 0.366012 0.539767 0.5
196 1 0.106171 0.404608 0.5
220 1 0.310652 0.348724 0.5
354 1 0.359036 0.336555 0.5
64 1 0.332136 0.388316 0.5
215 1 0.487508 0.281391 0.5
54 1 0.37261 0.230769 0.5
127 1 0.633565 0.535995 0.5
291 1 0.734009 0.344605 0.5
108 1 0.921732 0.298291 0.5
85 1 0.970145 0.419065 0.5
226 1 0.133164 0.442543 0.5
261 1 0.173295 0.470465 0.5
341 1 0.278777 0.439979 0.5
190 1 0.250972 0.509795 0.5
272 1 0.186174 0.42657 0.5
158 1 0.278577 0.481354 0.5
232 1 0.314985 0.270445 0.5
197 1 0.572312 0.33727 0.5
189 1 0.528792 0.314519 0.5
3 1 0.5413 0.412609 0.5
205 1 0.760473 0.388028 0.5
298 1 0.803148 0.404896 0.5
275 1 0.852156 0.563691 0.5
128 1 0.235699 0.442716 0.5
183 1 0.260573 0.364121 0.5
369 1 0.305332 0.596356 0.5
68 1 0.50641 0.431694 0.5
116 1 0.920683 0.346156 0.5
259 1 0.0498623 0.49684 0.5
192 1 0.091052 0.477921 0.5
160 1 0.133454 0.488544 0.5
161 1 0.195871 0.515432 0.5
243 1 0.216153 0.586308 0.5
26 1 0.330043 0.559026 0.5
57 1 0.28394 0.705493 0.5
120 1 0.387202 0.490564 0.5
225 1 0.381245 0.448665 0.5
385 1 0.568198 0.378823 0.5
163 1 0.862857 0.478895 0.5
283 1 0.729989 0.431627 0.5
69 1 0.948396 0.492322 0.5
235 1 0.142285 0.637377 0.5
290 1 0.281169 0.560345 0.5
216 1 0.18473 0.650544 0.5
392 1 0.243502 0.745673 0.5
262 1 0.414388 0.526783 0.5
43 1 0.457721 0.505444 0.5
223 1 0.53668 0.563837 0.5
56 1 0.593962 0.635742 0.5
219 1 0.931131 0.403674 0.5
211 1 0.781654 0.438536 0.5
110 1 0.913014 0.558606 0.5
25 1 0.321889 0.688488 0.5
382 1 0.413567 0.280632 0.5
22 1 0.498417 0.480773 0.5
361 1 0.551988 0.465582 0.5
227 1 0.571515 0.530005 0.5
164 1 0.704252 0.511078 0.5
17 1 0.896588 0.511018 0.5
352 1 0.747156 0.58161 0.5
72 1 0.893436 0.437116 0.5
156 1 0.00136605 0.45557 0.5
71 1 0.240641 0.550644 0.5
388 1 0.256138 0.665596 0.5
213 1 0.229073 0.63166 0.5
242 1 0.241032 0.789039 0.5
199 1 0.323625 0.50438 0.5
77 1 0.45355 0.309244 0.5
171 1 0.732356 0.481026 0.5
279 1 0.830319 0.524375 0.5
166 1 0.957998 0.534729 0.5
233 1 0.136842 0.702419 0.5
148 1 0.194962 0.708196 0.5
173 1 0.293202 0.643365 0.5
143 1 0.342473 0.613743 0.5
379 1 0.349067 0.424559 0.5
345 1 0.679409 0.70564 0.5
276 1 0.671821 0.478472 0.5
41 1 0.696679 0.606904 0.5
9 1 0.682168 0.562962 0.5
263 1 0.823727 0.466249 0.5
115 1 0.797009 0.559114 0.5
141 1 0.998677 0.520497 0.5
62 1 0.13592 0.556434 0.5
270 1 0.181902 0.56272 0.5
132 1 0.0387126 0.543263 0.5
74 1 0.104861 0.672137 0.5
23 1 0.167909 0.601339 0.5
104 1 0.485098 0.363171 0.5
332 1 0.398856 0.569621 0.5
340 1 0.626767 0.493183 0.5
282 1 0.639393 0.635654 0.5
273 1 0.641194 0.576688 0.5
29 1 0.821077 0.658856 0.5
351 1 0.747503 0.632669 0.5
182 1 0.792182 0.762141 0.5
334 1 0.798502 0.617803 0.5
153 1 0.0865858 0.570288 0.5
249 1 0.297715 0.753602 0.5
292 1 0.37379 0.708648 0.5
400 1 0.460861 0.599725 0.5
49 1 0.406451 0.319483 0.5
244 1 0.553553 0.603593 0.5
100 1 0.762116 0.536716 0.5
302 1 0.0871576 0.523619 0.5
73 1 0.970923 0.602974 0.5
206 1 0.0552264 0.692611 0.5
212 1 0.165481 0.73509 0.5
301 1 0.398825 0.410102 0.5
121 1 0.548155 0.656579 0.5
201 1 0.598111 0.59023 0.5
359 1 0.602084 0.678785 0.5
293 1 0.592948 0.72254 0.5
281 1 0.74825 0.700501 0.5
39 1 0.929713 0.597039 0.5
96 1 0.0478273 0.630772 0.5
151 1 0.987909 0.565586 0.5
78 1 0.0754044 0.77415 0.5
114 1 0.289914 0.796352 0.5
323 1 0.415073 0.723682 0.5
245 1 0.423598 0.443699 0.5
144 1 0.402501 0.613841 0.5
265 1 0.553912 0.79622 0.5
58 1 0.783952 0.490287 0.5
146 1 0.660343 0.819671 0.5
362 1 0.673188 0.658199 0.5
170 1 0.885979 0.587703 0.5
117 1 0.932161 0.83781 0.5
260 1 0.940106 0.65212 0.5
367 1 0.0955598 0.628857 0.5
50 1 0.944689 0.734438 0.5
118 1 0.284813 0.841328 0.5
84 1 0.338473 0.73102 0.5
168 1 0.520111 0.517156 0.5
339 1 0.530049 0.858022 0.5
97 1 0.513278 0.679246 0.5
363 1 0.497096 0.582823 0.5
391 1 0.753409 0.744808 0.5
37 1 0.993399 0.642008 0.5
303 1 0.95644 0.692324 0.5
239 1 0.137432 0.802329 0.5
251 1 0.0459149 0.810929 0.5
79 1 0.38685 0.661086 0.5
82 1 0.42908 0.67642 0.5
200 1 0.63339 0.787323 0.5
139 1 0.44105 0.63466 0.5
40 1 0.546172 0.726561 0.5
266 1 0.851383 0.705824 0.5
370 1 0.791058 0.690051 0.5
27 1 0.879551 0.744267 0.5
180 1 0.0265582 0.587989 0.5
310 1 0.11846 0.745971 0.5
149 1 0.476015 0.712139 0.5
285 1 0.475943 0.543559 0.5
355 1 0.515803 0.806695 0.5
299 1 0.620305 0.854265 0.5
314 1 0.587938 0.772745 0.5
126 1 0.687552 0.749788 0.5
174 1 0.728116 0.793838 0.5
80 1 0.787622 0.81434 0.5
387 1 0.841272 0.620247 0.5
67 1 0.968644 0.811546 0.5
103 1 0.0722924 0.733325 0.5
241 1 0.968433 0.766765 0.5
234 1 0.203423 0.763102 0.5
376 1 0.515227 0.758361 0.5
167 1 0.419921 0.774415 0.5
395 1 0.569193 0.892174 0.5
300 1 0.579314 0.852311 0.5
38 1 0.504121 0.886678 0.5
135 1 0.621695 0.749025 0.5
316 1 0.633038 0.706331 0.5
386 1 0.860306 0.659766 0.5
30 1 0.892641 0.855958 0.5
208 1 0.0996585 0.870893 0.5
187 1 0.21893 0.846485 0.5
322 1 0.00865215 0.797881 0.5
159 1 0.370136 0.758038 0.5
33 1 0.32191 0.963619 0.5
46 1 0.466962 0.902728 0.5
186 1 0.446898 0.862522 0.5
313 1 0.643784 0.943229 0.5
45 1 0.826914 0.788627 0.5
325 1 0.867744 0.999753 0.5
14 1 0.837535 0.83987 0.5
130 1 5.85621e-05 0.734182 0.5
336 1 0.872469 0.817509 0.5
389 1 0.906654 0.711571 0.5
52 1 0.171056 0.927504 0.5
247 1 0.478277 0.650821 0.5
6 1 0.643224 0.0316054 0.5
346 1 0.691034 0.938762 0.5
358 1 0.797675 0.869551 0.5
343 1 0.755437 0.857997 0.5
60 1 0.772171 0.909165 0.5
16 1 0.961508 0.995968 0.5
321 1 0.973483 0.862151 0.5
374 1 0.284075 0.906901 0.5
331 1 0.453075 0.75287 0.5
137 1 0.400989 0.850761 0.5
13 1 0.482452 0.833098 0.5
81 1 0.47124 0.989767 0.5
254 1 0.516653 0.972827 0.5
8 1 0.704008 0.831285 0.5
122 1 0.907665 0.98925 0.5
222 1 0.992842 0.965971 0.5
90 1 0.918035 0.792496 0.5
253 1 0.0132115 0.84407 0.5
142 1 0.0570226 0.852135 0.5
255 1 0.479671 0.78535 0.5
378 1 0.473894 0.945915 0.5
147 1 0.4162 0.985615 0.5
217 1 0.839299 0.895644 0.5
138 1 0.906449 0.946501 0.5
195 1 0.132975 0.972858 0.5
55 1 0.0924389 0.829108 0.5
347 1 0.331772 0.811957 0.5
315 1 0.313874 0.876402 0.5
124 1 0.174867 0.83313 0.5
238 1 0.313173 0.10029 0.5
65 1 0.392769 0.0285382 0.5
308 1 0.419024 0.922023 0.5
327 1 0.599151 0.922992 0.5
294 1 0.560086 0.942452 0.5
280 1 0.745924 0.961864 0.5
398 1 0.71623 0.87028 0.5
333 1 0.883224 0.895242 0.5
7 1 0.866211 0.948206 0.5
155 1 0.0693257 0.90334 0.5
342 1 0.21075 0.945643 0.5
28 1 0.440561 0.817245 0.5
107 1 0.357501 0.846613 0.5
317 1 0.37089 0.990131 0.5
93 1 0.372176 0.0631965 0.5
267 1 0.501222 0.0340963 0.5
256 1 0.692978 0.977406 0.5
309 1 0.66842 0.877468 0.5
296 1 0.727963 0.911741 0.5
228 1 0.83236 0.968223 0.5
328 1 0.860398 0.0496682 0.5
178 1 0.962791 0.933057 0.5
19 1 0.118881 0.931664 0.5
312 1 0.133335 0.841284 0.5
133 1 0.216444 0.891476 0.5
152 1 0.254292 0.869976 0.5
349 1 0.386416 0.807688 0.5
360 1 0.333109 0.913475 0.5
89 1 0.629923 0.986896 0.5
91 1 0.713246 0.0637198 0.5
320 1 0.792999 0.0575105 0.5
380 1 0.603338 0.149778 0.5
191 1 0.928502 0.882969 0.5
