LAMMPS (15 Sep 2022)
OMP_NUM_THREADS environment is not set. Defaulting to 1 thread. (src/comm.cpp:98)
  using 1 OpenMP thread(s) per MPI task
Lattice spacing in x,y,z = 1.4142136 1.4142136 1.4142136
Created orthogonal box = (0 0 -0.70710678) to (28.284271 28.284271 0.70710678)
  1 by 1 by 1 MPI processor grid
Created 400 atoms
  using lattice units in orthogonal box = (0 0 -0.70710678) to (28.284271 28.284271 0.70710678)
  create_atoms CPU = 0.000 seconds
Generated 0 of 0 mixed pair_coeff terms from geometric mixing rule
Neighbor list info ...
  update: every = 1 steps, delay = 0 steps, check = yes
  max neighbors/atom: 2000, page size: 100000
  master list distance cutoff = 1.3
  ghost atom cutoff = 1.3
  binsize = 0.65, bins = 44 44 3
  1 neighbor lists, perpetual/occasional/extra = 1 0 0
  (1) pair lj/cut, perpetual
      attributes: half, newton on
      pair build: half/bin/atomonly/newton
      stencil: half/bin/2d
      bin: standard
Setting up Verlet run ...
  Unit style    : lj
  Current step  : 0
  Time step     : 0.01
Per MPI rank memory allocation (min/avg/max) = 3.059 | 3.059 | 3.059 Mbytes
   Step          Temp          E_pair         E_mol          TotEng         Press     
         0   3              0              0              2.9925         1.49625      
       500   2.9392821      0.20442969     0              3.1363635      3.4155072    
      1000   2.9456397      0.19092735     0              3.129203       3.4536175    
      1500   2.8670936      0.23770336     0              3.0976292      3.7706847    
      2000   3.0192609      0.1775136      0              3.1892263      3.4367002    
      2500   2.9520526      0.1721094      0              3.1167819      3.1937199    
      3000   2.8959575      0.084477555    0              2.9731952      2.368217     
      3500   2.6207598      0.2012373      0              2.8154452      3.274353     
      4000   2.8101669      0.24042087     0              3.0435624      3.565872     
      4500   2.9873252      0.20454168     0              3.1843986      3.5066288    
      5000   3.0958582      0.23403376     0              3.3221523      3.7158551    
      5500   3.0916402      0.2916837      0              3.3755948      4.1709924    
      6000   3.2073427      0.15688862     0              3.3562129      3.3335833    
      6500   3.066322       0.26342827     0              3.3220845      3.8107917    
      7000   3.1553285      0.21484984     0              3.3622901      3.6598786    
      7500   3.0884709      0.25312969     0              3.3338794      3.913673     
      8000   3.0771848      0.31481917     0              3.384311       4.3599211    
      8500   2.9471897      0.29362187     0              3.2334436      4.1159472    
      9000   3.1069955      0.17361072     0              3.2728387      3.3793685    
      9500   2.6513501      0.21568658     0              2.8604083      3.4713537    
     10000   2.808108       0.14567838     0              2.9467661      3.034056     
     10500   2.9962486      0.17552996     0              3.164288       3.2003379    
     11000   2.9276332      0.21001401     0              3.1303281      3.5889766    
     11500   2.9782049      0.25306161     0              3.223821       3.8407422    
     12000   3.1578535      0.19966317     0              3.3496221      3.6241443    
     12500   3.1294953      0.3458756      0              3.4675472      4.4483245    
     13000   3.0031443      0.20251938     0              3.1981558      3.3654518    
     13500   2.9441941      0.21699809     0              3.1538317      3.6213424    
     14000   2.9002044      0.17367788     0              3.0666318      3.2685009    
     14500   2.800603       0.15306225     0              2.9466637      3.0775862    
     15000   2.7434026      0.28853378     0              3.0250779      3.9860495    
     15500   3.1587247      0.16188022     0              3.3127081      3.310226     
     16000   3.1432784      0.23690166     0              3.3723219      3.9446504    
     16500   3.1166146      0.14873561     0              3.2575587      3.2102669    
     17000   3.0225464      0.29792631     0              3.3129163      4.1131231    
     17500   3.1826007      0.13148456     0              3.3061287      2.969608     
     18000   3.143963       0.13961821     0              3.2757213      3.0946193    
     18500   2.8759903      0.30551077     0              3.1743111      4.2798917    
     19000   2.8494389      0.18002155     0              3.0223369      3.2229405    
     19500   2.8779875      0.1817679      0              3.0525604      3.3846348    
     20000   2.8747562      0.17412485     0              3.0416941      3.1267253    
     20500   2.9214045      0.20795155     0              3.1220526      3.5221556    
     21000   3.3306454      0.14306294     0              3.4653817      3.1928773    
     21500   3.2719347      0.29048798     0              3.5542429      4.3608938    
     22000   3.2393405      0.15915889     0              3.3904011      3.4272206    
     22500   2.9946351      0.27160253     0              3.2587511      3.9271718    
     23000   3.115567       0.20964083     0              3.3174189      3.6804399    
     23500   3.0186814      0.20483027     0              3.2159649      3.6098871    
     24000   2.9747238      0.22588703     0              3.193174       3.7518696    
     24500   2.7862971      0.11332761     0              2.892659       2.7751515    
     25000   2.7429477      0.12270626     0              2.8587966      2.7318857    
     25500   2.8805479      0.21465742     0              3.088004       3.663651     
     26000   2.9408855      0.21661622     0              3.1501495      3.4879155    
     26500   2.9745056      0.17764436     0              3.1447137      3.1846798    
     27000   3.0509223      0.18088829     0              3.2241833      3.3682228    
     27500   3.1560986      0.22935407     0              3.3775624      3.749308     
     28000   3.3423502      0.25781514     0              3.5918094      4.0866142    
     28500   3.2152331      0.22987717     0              3.4370721      3.7692012    
     29000   3.1064427      0.19492958     0              3.2936062      3.5123182    
     29500   3.1293334      0.19362598     0              3.315136       3.5421774    
     30000   3.1525797      0.33066735     0              3.4753656      4.2369194    
     30500   3.3873216      0.20690827     0              3.5857615      3.7725552    
     31000   2.9574993      0.23287779     0              3.1829834      3.8776621    
     31500   2.9071563      0.24820701     0              3.1480954      3.6055056    
     32000   2.8532461      0.25958501     0              3.105698       3.8587777    
     32500   2.8184265      0.16983879     0              2.9812192      3.3301559    
     33000   2.9840745      0.20512316     0              3.1817375      3.444876     
     33500   2.909933       0.16331551     0              3.0659737      3.2711231    
     34000   2.9044498      0.21969665     0              3.1168853      3.6842287    
     34500   2.745787       0.17022167     0              2.9091442      3.0098652    
     35000   3.0618543      0.21229702     0              3.2664966      3.4755644    
     35500   3.0507742      0.25890215     0              3.3020494      3.8870687    
     36000   3.1314453      0.24874535     0              3.372362       3.8451873    
     36500   3.0787228      0.19140384     0              3.2624298      3.4545963    
     37000   3.2588407      0.20292811     0              3.4536218      3.7446916    
     37500   3.0707084      0.22850244     0              3.2915341      3.7966914    
     38000   3.0161688      0.24068795     0              3.2493163      3.7389102    
     38500   2.9447286      0.19916707     0              3.1365339      3.5076678    
     39000   2.8699768      0.22100862     0              3.0838105      3.6207042    
     39500   2.6997694      0.21071209     0              2.9037321      3.4368417    
     40000   2.7138824      0.14147106     0              2.8485688      2.8894407    
     40500   2.8767982      0.22961022     0              3.0992164      3.6429205    
     41000   3.0638052      0.17812268     0              3.2342683      3.4074348    
     41500   3.1637867      0.20529526     0              3.3611725      3.5293006    
     42000   3.1004145      0.18385441     0              3.2765179      3.3906536    
     42500   3.2018512      0.14763101     0              3.3414776      3.2826755    
     43000   3.1150669      0.20358006     0              3.3108593      3.577831     
     43500   2.9951942      0.25798321     0              3.2456895      3.8876382    
     44000   2.6428084      0.15570879     0              2.7919102      3.0280093    
     44500   2.8456889      0.14235194     0              2.9809266      3.0223929    
     45000   2.9366669      0.21336667     0              3.1426919      3.4871399    
     45500   2.9735208      0.18804825     0              3.1541353      3.3535508    
     46000   2.9684633      0.22255676     0              3.1835989      3.7249451    
     46500   2.9253552      0.19452433     0              3.1125661      3.4401044    
     47000   3.3200489      0.20685935     0              3.5186081      3.8536738    
     47500   3.1849293      0.31547283     0              3.4924398      4.3663999    
     48000   3.1535551      0.21097848     0              3.3566497      3.6492563    
     48500   3.0981134      0.23729514     0              3.3276633      3.673641     
     49000   3.0534266      0.15266713     0              3.1984601      3.1223777    
     49500   2.8906046      0.17088823     0              3.0542663      3.1392625    
     50000   2.8127331      0.17342756     0              2.9791288      3.1093315    
Loop time of 1.33366 on 1 procs for 50000 steps with 400 atoms

Performance: 32392060.981 tau/day, 37490.811 timesteps/s, 14.996 Matom-step/s
98.1% CPU use with 1 MPI tasks x 1 OpenMP threads

MPI task timing breakdown:
Section |  min time  |  avg time  |  max time  |%varavg| %total
---------------------------------------------------------------
Pair    | 0.26009    | 0.26009    | 0.26009    |   0.0 | 19.50
Neigh   | 0.62516    | 0.62516    | 0.62516    |   0.0 | 46.88
Comm    | 0.081266   | 0.081266   | 0.081266   |   0.0 |  6.09
Output  | 0.0047717  | 0.0047717  | 0.0047717  |   0.0 |  0.36
Modify  | 0.26354    | 0.26354    | 0.26354    |   0.0 | 19.76
Other   |            | 0.09883    |            |       |  7.41

Nlocal:            400 ave         400 max         400 min
Histogram: 1 0 0 0 0 0 0 0 0 0
Nghost:             80 ave          80 max          80 min
Histogram: 1 0 0 0 0 0 0 0 0 0
Neighs:            391 ave         391 max         391 min
Histogram: 1 0 0 0 0 0 0 0 0 0

Total # of neighbors = 391
Ave neighs/atom = 0.9775
Neighbor list builds = 16902
Dangerous builds = 0
Generated 0 of 0 mixed pair_coeff terms from geometric mixing rule
Setting up Verlet run ...
  Unit style    : lj
  Current step  : 50000
  Time step     : 0.01
Per MPI rank memory allocation (min/avg/max) = 3.087 | 3.087 | 3.087 Mbytes
   Step          Temp          E_pair         E_mol          TotEng         Press     
     50000   2.8127331      0.17342756     0              2.9791288      3.1093315    
     50500   2.8840966      0.28255151     0              3.1594379      3.9071714    
     51000   3.0288266      0.12274328     0              3.1439978      2.8762893    
     51500   3.0578954      0.18841699     0              3.2386676      3.5588731    
     52000   3.0665591      0.30662382     0              3.3655165      4.4077641    
     52500   2.9325954      0.25939904     0              3.184663       3.9726447    
     53000   2.810974       0.28731388     0              3.0912605      4.0892563    
     53500   3.0566941      0.15303886     0              3.2020912      3.1755194    
     54000   2.9630392      0.23858369     0              3.1942153      3.772551     
     54500   2.9528893      0.25994456     0              3.2054516      3.8435631    
     55000   2.9736513      0.24969734     0              3.2159145      3.8290485    
     55500   2.9094966      0.17398643     0              3.0762093      3.2235995    
     56000   2.8447489      0.25373708     0              3.0913741      3.7511485    
     56500   2.760565       0.16747501     0              2.9211386      3.0971367    
     57000   2.6977776      0.21502215     0              2.9060553      3.5115292    
     57500   2.7668186      0.11236899     0              2.8722705      2.7783466    
     58000   2.7296129      0.10458127     0              2.8273702      2.5747413    
     58500   2.8731818      0.13183035     0              2.9978292      2.817121     
     59000   2.9239412      0.21211519     0              3.1287466      3.6876946    
     59500   2.8169559      0.18828        0              2.9981935      3.4161879    
     60000   2.6655545      0.24899889     0              2.9078895      3.7295986    
     60500   2.5878413      0.17598268     0              2.7573544      3.0489955    
     61000   2.4585778      0.12845456     0              2.5808859      2.7391888    
     61500   2.6497287      0.14754568     0              2.7906501      2.9915067    
     62000   2.704494       0.16335061     0              2.8610834      3.0280571    
     62500   2.7089871      0.16150302     0              2.8637176      2.9780389    
     63000   2.6602253      0.18138075     0              2.8349555      3.0871655    
     63500   2.7642669      0.23911532     0              2.9964715      3.7109521    
     64000   2.8808432      0.27243896     0              3.1460801      3.9057124    
     64500   2.5463101      0.2563717      0              2.7963161      3.7114852    
     65000   2.5671989      0.1648854      0              2.7256663      2.9977586    
     65500   2.542701       0.13821945     0              2.6745637      2.8699449    
     66000   2.36715        0.15933994     0              2.520572       2.7164796    
     66500   2.5093436      0.15453323     0              2.6576035      3.1012951    
     67000   2.324872       0.20035906     0              2.5194188      3.1652943    
     67500   2.5331346      0.11797763     0              2.6447794      2.5444803    
     68000   2.3305686      0.15147526     0              2.4762174      2.8008021    
     68500   2.4457994      0.14655529     0              2.5862402      2.7385305    
     69000   2.351475       0.16700912     0              2.5126055      2.7921681    
     69500   2.4263506      0.18088188     0              2.6011666      3.0915471    
     70000   2.4570753      0.20232633     0              2.653259       3.143613     
     70500   2.6102554      0.17569809     0              2.7794278      3.0068687    
     71000   2.4514078      0.18595679     0              2.6312361      2.8905177    
     71500   2.3599706      0.18062459     0              2.5346953      2.8959005    
     72000   2.3791255      0.1262809      0              2.4994586      2.6276261    
     72500   2.3328333      0.13948962     0              2.4664908      2.6491691    
     73000   2.2277144      0.15011316     0              2.3722582      2.5900886    
     73500   2.2874626      0.1539613      0              2.4357053      2.8027095    
     74000   2.1951888      0.10805525     0              2.2977561      2.3728085    
     74500   2.2421928      0.17547682     0              2.4120642      2.8798046    
     75000   2.1163327      0.16902946     0              2.2800713      2.7733499    
     75500   2.2780534      0.13561141     0              2.4079697      2.753752     
     76000   2.3600046      0.17807331     0              2.5321779      2.9535367    
     76500   2.2261871      0.18619625     0              2.4068179      3.0701662    
     77000   2.2720021      0.19738481     0              2.4637069      3.0941878    
     77500   2.3815079      0.12654829     0              2.5021024      2.6403053    
     78000   2.3255961      0.18922959     0              2.5090117      2.9771041    
     78500   2.1080372      0.10224322     0              2.2050103      2.1449094    
     79000   2.1197091      0.16419033     0              2.2786001      2.6791824    
     79500   2.0597389      0.16712805     0              2.2217176      2.7323824    
     80000   2.1344868      0.12095638     0              2.250107       2.4024921    
     80500   2.0112929      0.10656797     0              2.1128326      2.2869102    
     81000   2.0570678      0.12469776     0              2.1766229      2.4065642    
     81500   2.0057298      0.1203357      0              2.1210512      2.3888151    
     82000   2.0582624      0.095430365    0              2.1485471      2.1717862    
     82500   1.9482475      0.12574356     0              2.0691204      2.4793127    
     83000   2.0656574      0.10129258     0              2.1617859      2.1702157    
     83500   2.1004725      0.13125788     0              2.2264792      2.4000381    
     84000   2.1588429      0.13616163     0              2.2896074      2.5028545    
     84500   2.0089647      0.16725899     0              2.1712012      2.7496734    
     85000   1.9706676      0.12292792     0              2.0886688      2.385212     
     85500   1.8977069      0.083194149    0              1.9761568      1.9581892    
     86000   1.9146977      0.11612211     0              2.0260331      2.2781058    
     86500   1.9178255      0.13450434     0              2.0475353      2.2960695    
     87000   2.0820464      0.11716797     0              2.1940092      2.4124121    
     87500   2.0050953      0.15147907     0              2.1515616      2.7061293    
     88000   2.0263239      0.090153219    0              2.1114113      2.01474      
     88500   1.8948861      0.16795953     0              2.0581084      2.734239     
     89000   1.956197       0.15551202     0              2.1068185      2.6243212    
     89500   2.1017959      0.15823456     0              2.2547759      2.6383046    
     90000   1.9449759      0.12991517     0              2.0700286      2.359995     
     90500   1.8130212      0.14888834     0              1.957377       2.5317909    
     91000   1.8100346      0.11472704     0              1.9202366      2.2110763    
     91500   1.7722229      0.10854284     0              1.8763352      2.1792196    
     92000   1.7121777      0.11722021     0              1.8251175      2.1947909    
     92500   1.7363192      0.09916776     0              1.8311462      1.9926645    
     93000   1.6654883      0.13804954     0              1.7993741      2.3570856    
     93500   1.6302325      0.12104328     0              1.7472002      2.2483587    
     94000   1.5549884      0.10871844     0              1.6598194      1.9704952    
     94500   1.5829976      0.090130138    0              1.6691703      1.8952793    
     95000   1.7084403      0.074251136    0              1.7784203      1.7619112    
     95500   1.7069555      0.1307834      0              1.8334715      2.2944538    
     96000   1.6993339      0.0956893      0              1.7907749      2.0176268    
     96500   1.7897414      0.070564177    0              1.8558313      1.7453246    
     97000   1.7513707      0.12680457     0              1.8737969      2.298185     
     97500   1.5974008      0.14909301     0              1.7425003      2.4134082    
     98000   1.6171978      0.10305835     0              1.7162132      2.1043888    
     98500   1.5720427      0.080601237    0              1.6487138      1.8389586    
     99000   1.5593434      0.058161684    0              1.6136067      1.6246474    
     99500   1.4704942      0.04391002     0              1.510728       1.4161846    
    100000   1.5042392      0.088844074    0              1.5893227      1.8508852    
    100500   1.5151217      0.086633899    0              1.5979678      1.7626898    
    101000   1.4469923      0.15146677     0              1.5948416      2.3669485    
    101500   1.4726551      0.10684914     0              1.5758226      1.9860958    
    102000   1.5999113      0.097817152    0              1.6937286      2.0469254    
    102500   1.6455228      0.10099198     0              1.742401       1.9485047    
    103000   1.4727709      0.07389231     0              1.5429813      1.7113531    
    103500   1.4863109      0.052571864    0              1.535167       1.5228649    
    104000   1.4137295      0.08265618     0              1.4928513      1.8291764    
    104500   1.4172783      0.051811812    0              1.4655469      1.4661036    
    105000   1.2994307      0.092202094    0              1.3883843      1.8406612    
    105500   1.2695271      0.116592       0              1.3829452      1.9509857    
    106000   1.3500045      0.087865516    0              1.434495       1.6028231    
    106500   1.4432761      0.08380865     0              1.5234766      1.7905821    
    107000   1.4009967      0.10490524     0              1.5023995      1.8900507    
    107500   1.3733078      0.077264658    0              1.4471392      1.6686326    
    108000   1.3651455      0.07471673     0              1.4364494      1.6379093    
    108500   1.3187497      0.095346415    0              1.4107992      1.6816931    
    109000   1.2738234      0.052184944    0              1.3228238      1.2991098    
    109500   1.2495078      0.072828053    0              1.3192121      1.6032628    
    110000   1.2267342      0.071912803    0              1.2955802      1.5668447    
    110500   1.1455536      0.06181844     0              1.2045082      1.4541667    
    111000   1.0620312      0.067395956    0              1.1267721      1.3873917    
    111500   1.138614       0.073480362    0              1.2092479      1.4828994    
    112000   1.1959589      0.054480503    0              1.2474495      1.3594935    
    112500   1.1472391      0.058996332    0              1.2033673      1.3468336    
    113000   1.1724785      0.056922815    0              1.2264701      1.4485539    
    113500   1.0981501      0.061411174    0              1.1568159      1.4129122    
    114000   1.1253117      0.059327407    0              1.1818258      1.3666766    
    114500   1.0873969      0.080317671    0              1.164996       1.4909997    
    115000   1.1155887      0.070624812    0              1.1834246      1.4588808    
    115500   1.1809536      0.05548645     0              1.2334877      1.3747181    
    116000   1.0856935      0.070426585    0              1.1534058      1.4757176    
    116500   1.0740639      0.041225695    0              1.1126045      1.1553501    
    117000   1.0455541      0.063358759    0              1.106299       1.4340047    
    117500   1.0073581      0.036590749    0              1.0414305      1.0809518    
    118000   1.0015975      0.066322828    0              1.0654163      1.401468     
    118500   0.98011767     0.043985015    0              1.0216524      1.145073     
    119000   0.96257549     0.034371551    0              0.99454061     1.1026851    
    119500   1.0298815      0.056345402    0              1.0836522      1.348086     
    120000   1.0076766      0.057946646    0              1.0631041      1.3131362    
    120500   0.99578734     0.053072444    0              1.0463703      1.1715405    
    121000   0.93047285     0.055440939    0              0.98358761     1.2422745    
    121500   0.87324906     0.041166492    0              0.91223243     1.1119567    
    122000   0.90496224     0.042461444    0              0.94516128     1.0522737    
    122500   0.87487976     0.028305209    0              0.90099777     0.95928967   
    123000   0.88359306     0.048499882    0              0.92988396     1.1879447    
    123500   0.9039061      0.049951589    0              0.95159792     1.1896302    
    124000   0.94539508     0.044640423    0              0.98767202     1.2116458    
    124500   0.8952768      0.03694626     0              0.92998487     1.0028811    
    125000   0.81857246     0.071808837    0              0.88833486     1.4032532    
    125500   0.8412422      0.050869982    0              0.89000908     1.1222421    
    126000   0.83035527     0.036569797    0              0.86484918     1.0481789    
    126500   0.82529547     0.05067733     0              0.87390956     1.2153907    
    127000   0.74766852     0.036311039    0              0.78211039     0.97034847   
    127500   0.72955082     0.052021397    0              0.77974834     1.0923254    
    128000   0.67710191     0.058519122    0              0.73392828     1.0966067    
    128500   0.71115273     0.030177688    0              0.73955253     0.85543844   
    129000   0.71115359     0.028988615    0              0.73836432     0.83588564   
    129500   0.71976328     0.040863078    0              0.75882695     1.0621272    
    130000   0.66974626     0.061946573    0              0.73001847     1.1051884    
    130500   0.67907714     0.034541627    0              0.71192107     0.86879173   
    131000   0.67208608     0.038185302    0              0.70859117     0.91977054   
    131500   0.59236436     0.039056815    0              0.62994026     0.85618451   
    132000   0.59662134     0.02444121     0              0.61957099     0.68389059   
    132500   0.58448222     0.027407929    0              0.61042894     0.75740834   
    133000   0.57341098     0.013048144    0              0.58502559     0.56931981   
    133500   0.56106295     0.019507908    0              0.5791682      0.63811786   
    134000   0.58188345     0.025595665    0              0.6060244      0.75684259   
    134500   0.5835605      0.040192082    0              0.62229368     0.93605408   
    135000   0.54172258     0.020303219    0              0.5606715      0.66104179   
    135500   0.52099324     0.025192107    0              0.54488287     0.70450099   
    136000   0.51365581     0.014844229    0              0.5272159      0.58998277   
    136500   0.45866834     0.013539154    0              0.47106083     0.48409423   
    137000   0.47204703     0.016013122    0              0.48688003     0.59716357   
    137500   0.43845527     0.018501161    0              0.4558603      0.59673775   
    138000   0.4732347      0.013025603    0              0.48507721     0.52344188   
    138500   0.46011027     0.013676654    0              0.47263665     0.53875183   
    139000   0.44006922     0.023676194    0              0.46264524     0.65654122   
    139500   0.4114436      0.016267028    0              0.42668202     0.52469024   
    140000   0.38754281     0.0090547937   0              0.39562874     0.40967445   
    140500   0.3551486      0.0099777257   0              0.36423846     0.39550306   
    141000   0.34926634     0.009579193    0              0.35797236     0.40766114   
    141500   0.36303212     0.0095720537   0              0.37169659     0.41106551   
    142000   0.35605146     0.021019962    0              0.37618129     0.57266878   
    142500   0.33413104     0.0052435276   0              0.33853924     0.31990188   
    143000   0.29024804     0.019701254    0              0.30922368     0.55472143   
    143500   0.29377684     0.006715598    0              0.299758       0.30620453   
    144000   0.27051678     0.011283707    0              0.2811242      0.3887703    
    144500   0.24146036     0.0093931749   0              0.25024988     0.35916967   
    145000   0.24820196     0.0054830771   0              0.25306453     0.27094011   
    145500   0.25183961     0.0076726537   0              0.25888266     0.30807833   
    146000   0.2059935      0.0099769944   0              0.21545551     0.37887939   
    146500   0.19910394     0.0067365932   0              0.20534277     0.26669482   
    147000   0.18505464     0.0053691975   0              0.1899612      0.25232508   
    147500   0.17476908     0.0043342028   0              0.17866636     0.23561988   
    148000   0.16715597     0.0029387697   0              0.16967685     0.19468484   
    148500   0.13437889     0.0040006017   0              0.13804355     0.19031953   
    149000   0.12835484     0.0034750234   0              0.13150898     0.17641422   
    149500   0.12925959     0.0028758853   0              0.13181232     0.16017267   
    150000   0.10141011     0.0012616943   0              0.10241827     0.10090075   
Loop time of 2.212 on 1 procs for 100000 steps with 400 atoms

Performance: 39059639.787 tau/day, 45207.916 timesteps/s, 18.083 Matom-step/s
98.6% CPU use with 1 MPI tasks x 1 OpenMP threads

MPI task timing breakdown:
Section |  min time  |  avg time  |  max time  |%varavg| %total
---------------------------------------------------------------
Pair    | 0.45596    | 0.45596    | 0.45596    |   0.0 | 20.61
Neigh   | 0.91959    | 0.91959    | 0.91959    |   0.0 | 41.57
Comm    | 0.13086    | 0.13086    | 0.13086    |   0.0 |  5.92
Output  | 0.0090761  | 0.0090761  | 0.0090761  |   0.0 |  0.41
Modify  | 0.52235    | 0.52235    | 0.52235    |   0.0 | 23.61
Other   |            | 0.1742     |            |       |  7.87

Nlocal:            400 ave         400 max         400 min
Histogram: 1 0 0 0 0 0 0 0 0 0
Nghost:             81 ave          81 max          81 min
Histogram: 1 0 0 0 0 0 0 0 0 0
Neighs:            386 ave         386 max         386 min
Histogram: 1 0 0 0 0 0 0 0 0 0

Total # of neighbors = 386
Ave neighs/atom = 0.965
Neighbor list builds = 24814
Dangerous builds = 0
Total wall time: 0:00:03
Simulation density 0.5 completed.
LAMMPS (15 Sep 2022)
OMP_NUM_THREADS environment is not set. Defaulting to 1 thread. (src/comm.cpp:98)
  using 1 OpenMP thread(s) per MPI task
Lattice spacing in x,y,z = 1.2909944 1.2909944 1.2909944
Created orthogonal box = (0 0 -0.64549722) to (25.819889 25.819889 0.64549722)
  1 by 1 by 1 MPI processor grid
Created 400 atoms
  using lattice units in orthogonal box = (0 0 -0.64549722) to (25.819889 25.819889 0.64549722)
  create_atoms CPU = 0.000 seconds
Generated 0 of 0 mixed pair_coeff terms from geometric mixing rule
Neighbor list info ...
  update: every = 1 steps, delay = 0 steps, check = yes
  max neighbors/atom: 2000, page size: 100000
  master list distance cutoff = 1.3
  ghost atom cutoff = 1.3
  binsize = 0.65, bins = 40 40 2
  1 neighbor lists, perpetual/occasional/extra = 1 0 0
  (1) pair lj/cut, perpetual
      attributes: half, newton on
      pair build: half/bin/atomonly/newton
      stencil: half/bin/2d
      bin: standard
Setting up Verlet run ...
  Unit style    : lj
  Current step  : 0
  Time step     : 0.01
Per MPI rank memory allocation (min/avg/max) = 3.058 | 3.058 | 3.058 Mbytes
   Step          Temp          E_pair         E_mol          TotEng         Press     
         0   3              0              0              2.9925         1.7955       
       500   2.8816833      0.31982898     0              3.194308       5.3565636    
      1000   3.0313343      0.22260676     0              3.2463628      4.6935303    
      1500   2.8800284      0.44990982     0              3.3227381      6.1412025    
      2000   3.177901       0.32403657     0              3.4939929      5.7458001    
      2500   3.4025294      0.32195532     0              3.7159784      5.7839694    
      3000   3.1382659      0.28720447     0              3.4176247      5.1413955    
      3500   3.2347876      0.26356125     0              3.4902619      4.9233059    
      4000   3.2541107      0.36258293     0              3.6085583      5.8325378    
      4500   3.0291516      0.33352854     0              3.3551073      5.6002124    
      5000   2.9638605      0.37578567     0              3.3322366      6.0714694    
      5500   3.0142894      0.35781389     0              3.3645676      5.9222529    
      6000   3.0264949      0.33774524     0              3.3566739      5.3632174    
      6500   3.1476129      0.29686841     0              3.4366123      5.4412276    
      7000   2.9367939      0.19728763     0              3.1267396      4.199801     
      7500   3.0077276      0.25904805     0              3.2592564      5.118115     
      8000   3.0775515      0.31108831     0              3.3809459      5.3882835    
      8500   2.9786388      0.24037203     0              3.2115642      4.7314263    
      9000   2.7570785      0.26409587     0              3.0142817      4.8194656    
      9500   2.9531726      0.29889818     0              3.2446878      5.3195736    
     10000   2.827929       0.30629734     0              3.1271565      5.2077565    
     10500   2.5355472      0.25711628     0              2.7863246      4.7336667    
     11000   2.7898071      0.27914449     0              3.0619771      5.0680317    
     11500   2.9716013      0.23750225     0              3.2016746      4.7811751    
     12000   2.9897305      0.30618117     0              3.2884374      5.4713936    
     12500   3.1673257      0.343673       0              3.5030804      5.9269977    
     13000   3.299393       0.39448918     0              3.6856337      6.2630971    
     13500   3.038648       0.40071835     0              3.4317698      6.0437117    
     14000   3.0900914      0.37070762     0              3.4530737      6.3107518    
     14500   3.238952       0.28583299     0              3.5166876      5.4332076    
     15000   3.0921244      0.32758623     0              3.4119803      5.7288204    
     15500   3.0000812      0.32749918     0              3.3200802      5.5954413    
     16000   3.1542936      0.34905696     0              3.4954648      5.8044088    
     16500   3.098933       0.32967174     0              3.4208574      5.6626254    
     17000   3.2568285      0.3263218      0              3.5750082      5.6605976    
     17500   3.0770341      0.24724367     0              3.3165852      4.8048396    
     18000   2.8169059      0.38895424     0              3.1988179      5.9866076    
     18500   2.8593839      0.30562185     0              3.1578573      5.0389838    
     19000   2.8469146      0.24305769     0              3.082855       4.6920342    
     19500   2.8549168      0.32272369     0              3.1705032      5.3582956    
     20000   2.9761389      0.34771786     0              3.3164164      5.4069513    
     20500   3.0058596      0.33717236     0              3.3355173      5.562684     
     21000   3.0679206      0.27863254     0              3.3388834      5.1449505    
     21500   2.9959568      0.26024173     0              3.2487087      4.9363472    
     22000   3.0438314      0.2693834      0              3.3056052      5.2273743    
     22500   3.2135514      0.28597161     0              3.4914891      5.1212333    
     23000   3.1451057      0.27521572     0              3.4124586      5.303087     
     23500   3.1653054      0.26824884     0              3.425641       5.0341412    
     24000   3.228472       0.38955539     0              3.6099562      6.2343346    
     24500   2.9517276      0.27526968     0              3.219618       5.1241607    
     25000   2.8915779      0.38760689     0              3.2719559      5.9526168    
     25500   2.8607289      0.27690739     0              3.1304845      4.9884461    
     26000   2.9857279      0.29272109     0              3.2709847      5.1526242    
     26500   2.8817666      0.26008079     0              3.134643       4.9333436    
     27000   2.7200673      0.2067869      0              2.920054       4.3466293    
     27500   2.740854       0.27727014     0              3.011272       4.9544713    
     28000   3.0407757      0.21432489     0              3.2474986      4.6406463    
     28500   3.0087275      0.2266254      0              3.2278311      4.6487265    
     29000   3.0181589      0.23419191     0              3.2448054      4.7727984    
     29500   2.73072        0.22564797     0              2.9495412      4.4538099    
     30000   2.9210765      0.2495229      0              3.1632967      4.8449683    
     30500   2.9618488      0.32593579     0              3.28038        5.433762     
     31000   2.8225307      0.24800447     0              3.0634789      4.7464161    
     31500   2.9682837      0.29313557     0              3.2539985      5.2214404    
     32000   2.8957011      0.21327086     0              3.1017327      4.5182631    
     32500   3.0209996      0.36484963     0              3.3782968      5.7878146    
     33000   3.0487628      0.31592525     0              3.3570662      5.5354777    
     33500   3.1276445      0.32717078     0              3.4469962      5.6831576    
     34000   3.2781698      0.26260227     0              3.5325767      5.1044663    
     34500   3.217552       0.24578349     0              3.4552916      4.999163     
     35000   2.8533993      0.34248982     0              3.1887556      5.451184     
     35500   2.9234859      0.31297958     0              3.2291567      5.3480678    
     36000   2.8426461      0.27997746     0              3.1155169      4.9141955    
     36500   2.7094014      0.31205606     0              3.014684       5.2688818    
     37000   2.7104213      0.28668402     0              2.9903292      5.0525055    
     37500   2.9779944      0.2756441      0              3.2461935      4.9494624    
     38000   2.899254       0.2780414      0              3.1700472      5.1797361    
     38500   2.781056       0.42585125     0              3.1999546      6.3669419    
     39000   2.8487376      0.20737021     0              3.048986       4.0966575    
     39500   2.7231274      0.36092636     0              3.077246       5.8705154    
     40000   2.9845764      0.26070615     0              3.2378211      4.9549821    
     40500   3.0701564      0.31896997     0              3.381451       5.2547447    
     41000   3.1394764      0.39579514     0              3.5274228      6.0736309    
     41500   3.4413839      0.28587461     0              3.718655       5.2353385    
     42000   3.0754841      0.29230407     0              3.3600994      5.2098283    
     42500   3.011793       0.30699847     0              3.311262       5.0484806    
     43000   3.0389103      0.27853204     0              3.309845       5.1245242    
     43500   2.8878086      0.26597566     0              3.1465647      4.9498962    
     44000   2.9617508      0.32134748     0              3.2756939      5.2605797    
     44500   2.8715572      0.35391152     0              3.2182898      5.6042501    
     45000   2.8670394      0.21114832     0              3.0710201      4.3575404    
     45500   2.9959339      0.26116943     0              3.2496135      5.0221003    
     46000   2.91133        0.29213        0              3.1961817      5.3083952    
     46500   2.9314845      0.20846016     0              3.132616       4.5425449    
     47000   2.7829665      0.33381731     0              3.1098264      5.2032852    
     47500   2.8951756      0.34424887     0              3.2321866      5.6747632    
     48000   2.7858669      0.28405708     0              3.0629593      5.0025467    
     48500   3.1318772      0.26798397     0              3.3920314      5.2747842    
     49000   3.1421244      0.32141581     0              3.4556849      5.4636857    
     49500   3.1657757      0.31128247     0              3.4691437      5.3767669    
     50000   3.0664571      0.29305531     0              3.3518463      5.2792328    
Loop time of 1.46917 on 1 procs for 50000 steps with 400 atoms

Performance: 29404426.312 tau/day, 34032.901 timesteps/s, 13.613 Matom-step/s
99.0% CPU use with 1 MPI tasks x 1 OpenMP threads

MPI task timing breakdown:
Section |  min time  |  avg time  |  max time  |%varavg| %total
---------------------------------------------------------------
Pair    | 0.30711    | 0.30711    | 0.30711    |   0.0 | 20.90
Neigh   | 0.71226    | 0.71226    | 0.71226    |   0.0 | 48.48
Comm    | 0.084445   | 0.084445   | 0.084445   |   0.0 |  5.75
Output  | 0.0046481  | 0.0046481  | 0.0046481  |   0.0 |  0.32
Modify  | 0.26253    | 0.26253    | 0.26253    |   0.0 | 17.87
Other   |            | 0.09817    |            |       |  6.68

Nlocal:            400 ave         400 max         400 min
Histogram: 1 0 0 0 0 0 0 0 0 0
Nghost:             75 ave          75 max          75 min
Histogram: 1 0 0 0 0 0 0 0 0 0
Neighs:            505 ave         505 max         505 min
Histogram: 1 0 0 0 0 0 0 0 0 0

Total # of neighbors = 505
Ave neighs/atom = 1.2625
Neighbor list builds = 16987
Dangerous builds = 0
Generated 0 of 0 mixed pair_coeff terms from geometric mixing rule
Setting up Verlet run ...
  Unit style    : lj
  Current step  : 50000
  Time step     : 0.01
Per MPI rank memory allocation (min/avg/max) = 3.085 | 3.085 | 3.085 Mbytes
   Step          Temp          E_pair         E_mol          TotEng         Press     
     50000   3.0664571      0.29305531     0              3.3518463      5.2792328    
     50500   3.0831632      0.33311641     0              3.4085717      5.4980601    
     51000   3.0154344      0.42921103     0              3.4371069      6.4432763    
     51500   3.2893996      0.26933921     0              3.5505153      5.1491832    
     52000   2.9524164      0.23434951     0              3.1793849      4.7823604    
     52500   2.8491599      0.26315374     0              3.1051907      4.8881916    
     53000   2.7895789      0.29091053     0              3.0735155      5.1462668    
     53500   2.858395       0.29318368     0              3.1444327      5.1498089    
     54000   2.72327        0.27846719     0              2.994929       4.8260332    
     54500   2.5847385      0.20443799     0              2.7827146      4.1423593    
     55000   2.5936128      0.27561955     0              2.8627483      4.7488376    
     55500   2.8365045      0.17397021     0              3.0033834      4.1524783    
     56000   2.8327824      0.27446594     0              3.1001664      5.1226977    
     56500   2.7676638      0.38634977     0              3.1470944      5.7180816    
     57000   2.9172465      0.25966145     0              3.1696148      5.0903526    
     57500   2.8223063      0.30175061     0              3.1170012      5.2292565    
     58000   3.0376941      0.21478169     0              3.2448815      4.6629115    
     58500   2.7657351      0.31360408     0              3.0724249      5.1900226    
     59000   2.9144892      0.30511822     0              3.2123212      5.1845438    
     59500   2.7497842      0.34674849     0              3.0896582      5.3851205    
     60000   2.8128223      0.26669549     0              3.0724857      5.0400212    
     60500   2.7297682      0.27338677     0              2.9963306      4.8142479    
     61000   2.6097867      0.29555253     0              2.8988147      4.7686355    
     61500   2.4086163      0.2237056      0              2.6263003      4.382892     
     62000   2.5606147      0.22136204     0              2.7755752      4.3157742    
     62500   2.5073991      0.26799022     0              2.7691208      4.9005469    
     63000   2.5958606      0.26264263     0              2.8520136      4.7615065    
     63500   2.7934751      0.20604463     0              2.9925361      4.4729331    
     64000   2.8026629      0.23212998     0              3.0277862      4.3452722    
     64500   2.7197814      0.23477752     0              2.9477594      4.3640842    
     65000   2.6400565      0.21589491     0              2.8493512      4.36806      
     65500   2.3411702      0.26293034     0              2.5982476      4.6602097    
     66000   2.3013724      0.26490373     0              2.5605227      4.5705348    
     66500   2.4868695      0.23512191     0              2.7157743      4.3305311    
     67000   2.5102143      0.29351326     0              2.797452       5.0215736    
     67500   2.5145548      0.26138078     0              2.7696492      4.7038659    
     68000   2.6581518      0.20138739     0              2.8528938      4.3142545    
     68500   2.5157917      0.25500115     0              2.7645033      4.8426036    
     69000   2.6258818      0.18321436     0              2.8025315      3.8673691    
     69500   2.583695       0.24672316     0              2.8239589      4.602799     
     70000   2.7066267      0.20239798     0              2.9022581      4.3623123    
     70500   2.3763253      0.31201579     0              2.6824002      5.0733025    
     71000   2.3060366      0.22706503     0              2.5273365      4.2620252    
     71500   2.4459324      0.18069397     0              2.6205116      3.9627089    
     72000   2.3534387      0.21910048     0              2.5666556      4.2066094    
     72500   2.2351835      0.23703251     0              2.4666281      4.2992088    
     73000   2.1377725      0.23075598     0              2.3631841      4.3838754    
     73500   2.1242495      0.19471456     0              2.3136534      3.7821299    
     74000   2.1828967      0.20238531     0              2.3798247      3.871689     
     74500   2.238305       0.21765048     0              2.4503597      4.0600106    
     75000   2.1121391      0.29063795     0              2.3974967      4.7314919    
     75500   2.2678896      0.20610142     0              2.4683213      4.0029542    
     76000   2.207079       0.28337671     0              2.4849381      4.7336391    
     76500   2.4176433      0.24150257     0              2.6531018      4.3034951    
     77000   2.2921191      0.24127946     0              2.5276683      4.2700098    
     77500   2.2622095      0.21162424     0              2.4681782      3.8670591    
     78000   2.1750526      0.27931084     0              2.4489258      4.5914124    
     78500   2.0752451      0.20828027     0              2.2783372      3.9571921    
     79000   2.1615909      0.17096101     0              2.3271479      3.6408807    
     79500   2.0865555      0.25508792     0              2.336427       4.3945634    
     80000   2.0602403      0.18898232     0              2.244072       3.7791526    
     80500   1.9928088      0.13685383     0              2.1246807      3.2017586    
     81000   2.0319239      0.21190846     0              2.2387525      3.8912809    
     81500   2.0657439      0.19823213     0              2.2588117      3.9338324    
     82000   2.0320651      0.27318702     0              2.300172       4.423106     
     82500   2.0863329      0.19410384     0              2.2752209      3.7991751    
     83000   2.0851776      0.20099562     0              2.2809603      3.7595827    
     83500   2.1289519      0.1756742      0              2.2993037      3.6327329    
     84000   2.1098595      0.15035378     0              2.2549386      3.3305582    
     84500   2.1621727      0.22478507     0              2.3815523      4.1950846    
     85000   2.0759191      0.17161708     0              2.2423464      3.5741824    
     85500   2.0371635      0.22113647     0              2.2532071      4.0852094    
     86000   2.0454651      0.13832244     0              2.1786739      3.1509004    
     86500   1.9906508      0.17340415     0              2.1590783      3.5826872    
     87000   2.0239771      0.18697458     0              2.2058917      3.7648199    
     87500   1.8471738      0.13827823     0              1.9808341      3.0744892    
     88000   1.8331805      0.16387503     0              1.9924725      3.3745492    
     88500   1.8211543      0.16542782     0              1.9820292      3.3774464    
     89000   1.8475191      0.12286292     0              1.9657633      2.8195919    
     89500   1.7349513      0.21060126     0              1.9412152      3.6905665    
     90000   1.7207196      0.1765526      0              1.8929704      3.3491272    
     90500   1.8199102      0.15410844     0              1.9694688      3.3389884    
     91000   1.7021193      0.20167946     0              1.8995435      3.656243     
     91500   1.8637088      0.17695704     0              2.0360066      3.5994363    
     92000   1.8211957      0.21784224     0              2.0344849      3.9963032    
     92500   1.883807       0.14553976     0              2.0246373      3.2200727    
     93000   1.8013211      0.18338541     0              1.9802033      3.6001788    
     93500   1.7709257      0.15857549     0              1.9250738      3.3618461    
     94000   1.6666126      0.15596672     0              1.8184128      3.2915209    
     94500   1.5683882      0.15481111     0              1.7192783      3.1205191    
     95000   1.6144513      0.13996702     0              1.7503821      2.9583154    
     95500   1.6881039      0.10793852     0              1.7918222      2.6722062    
     96000   1.641275       0.15096863     0              1.7881404      3.2672317    
     96500   1.610831       0.22016367     0              1.8269676      3.8255697    
     97000   1.6897572      0.15780337     0              1.8433362      3.1262735    
     97500   1.687201       0.12926652     0              1.8122495      2.8994058    
     98000   1.7314265      0.15014357     0              1.8772415      3.1930248    
     98500   1.7118639      0.1404507      0              1.8480349      2.9501322    
     99000   1.4333153      0.17935284     0              1.6090848      3.1735805    
     99500   1.5794879      0.090698818    0              1.666238       2.3677118    
    100000   1.4876516      0.15862216     0              1.6425546      3.1544724    
    100500   1.5463222      0.13697544     0              1.6794318      2.7633646    
    101000   1.4796208      0.10549895     0              1.5814207      2.5208404    
    101500   1.4449301      0.1748975      0              1.6162153      3.3214891    
    102000   1.462401       0.12070793     0              1.5794529      2.5250345    
    102500   1.3697995      0.12262018     0              1.4889952      2.6332185    
    103000   1.4726873      0.096695142    0              1.5657008      2.4386303    
    103500   1.429067       0.093897847    0              1.5193922      2.205653     
    104000   1.4104913      0.11685585     0              1.5238209      2.564643     
    104500   1.3724543      0.13449244     0              1.5035156      2.6560991    
    105000   1.4220717      0.086853022    0              1.5053695      2.3708902    
    105500   1.287762       0.12266116     0              1.4072037      2.486557     
    106000   1.2571426      0.10128675     0              1.3552865      2.3344038    
    106500   1.223852       0.10738197     0              1.3281743      2.3664807    
    107000   1.2976252      0.11484597     0              1.4092271      2.5132015    
    107500   1.2824591      0.12573739     0              1.4049904      2.7381084    
    108000   1.2483581      0.16707425     0              1.4123114      3.0847795    
    108500   1.285393       0.14638334     0              1.4285628      3.0303729    
    109000   1.3296211      0.082903938    0              1.409201       2.2536935    
    109500   1.3840292      0.13656082     0              1.51713        2.7701392    
    110000   1.3191994      0.1282093      0              1.4441107      2.6885139    
    110500   1.3058177      0.12500387     0              1.427557       2.6407497    
    111000   1.2634344      0.12486836     0              1.3851442      2.7908013    
    111500   1.2233597      0.12957057     0              1.3498718      2.6543366    
    112000   1.1680834      0.072389852    0              1.2375531      2.0294592    
    112500   1.1119691      0.073381223    0              1.1825704      1.923495     
    113000   1.1607471      0.081290396    0              1.2391357      2.0243317    
    113500   1.0986817      0.08127504     0              1.1772101      2.176896     
    114000   1.1035481      0.086496709    0              1.1872859      2.1064629    
    114500   1.0847051      0.087463551    0              1.1694569      2.1479161    
    115000   1.0967895      0.10782089     0              1.2018684      2.3363897    
    115500   1.0358668      0.094182321    0              1.1274595      2.2209913    
    116000   1.0469734      0.11880804     0              1.163164       2.4218517    
    116500   1.0166848      0.073322769    0              1.0874659      1.8875792    
    117000   1.0436475      0.075178048    0              1.1162164      1.8847051    
    117500   1.0115821      0.06749051     0              1.0765436      1.7183731    
    118000   0.98261444     0.078562657    0              1.0587206      2.0118767    
    118500   1.0225027      0.071932293    0              1.0918787      1.8205432    
    119000   1.026682       0.057571339    0              1.0816866      1.6528527    
    119500   1.0218663      0.079305161    0              1.0986168      2.0240102    
    120000   0.95554877     0.097567934    0              1.0507278      2.0713834    
    120500   1.0153143      0.06776604     0              1.0805421      1.867355     
    121000   0.98838534     0.055929246    0              1.0418436      1.5697997    
    121500   0.93969688     0.084099615    0              1.0214473      1.8463577    
    122000   0.9064061      0.086198007    0              0.99033809     2.0273699    
    122500   0.89779982     0.077224207    0              0.97277953     1.9239536    
    123000   0.79038966     0.055152594    0              0.84356628     1.4939189    
    123500   0.80121092     0.067571648    0              0.86677954     1.642161     
    124000   0.86271432     0.048178958    0              0.90873649     1.4805445    
    124500   0.87178553     0.060035145    0              0.92964121     1.6907757    
    125000   0.83430587     0.06928764     0              0.90150775     1.7203481    
    125500   0.8622451      0.043450403    0              0.90353989     1.3750846    
    126000   0.88643614     0.044099057    0              0.92831911     1.4071569    
    126500   0.82911914     0.045878887    0              0.87292523     1.3386434    
    127000   0.80040244     0.056831567    0              0.855233       1.5289778    
    127500   0.7539776      0.054101249    0              0.80619391     1.5376682    
    128000   0.7074241      0.053073321    0              0.75872886     1.4363532    
    128500   0.66343646     0.0420795      0              0.70385737     1.3034214    
    129000   0.6787059      0.053194561    0              0.73020369     1.4334191    
    129500   0.67230613     0.045312753    0              0.71593811     1.382436     
    130000   0.66985515     0.038306865    0              0.70648738     1.1251039    
    130500   0.64402805     0.059307377    0              0.70172536     1.4575662    
    131000   0.65962364     0.038485922    0              0.69646051     1.2379866    
    131500   0.70310052     0.027639109    0              0.72898188     1.0581355    
    132000   0.69489882     0.041607714    0              0.73476929     1.2737712    
    132500   0.60883055     0.043385634    0              0.65069411     1.2992011    
    133000   0.60173852     0.024752327    0              0.6249865      0.91096618   
    133500   0.55465617     0.052528654    0              0.60579818     1.2738175    
    134000   0.56445614     0.026111371    0              0.58915637     0.95316958   
    134500   0.52155719     0.028559768    0              0.54881306     0.97903678   
    135000   0.54260196     0.025366396    0              0.56661185     0.91715347   
    135500   0.54360254     0.043456804    0              0.58570034     1.2215253    
    136000   0.5521977      0.047163702    0              0.59798091     1.2615312    
    136500   0.51605589     0.028186568    0              0.54295232     0.94641113   
    137000   0.49800068     0.030663904    0              0.52741959     0.92957551   
    137500   0.45935773     0.030329056    0              0.48853839     0.95334682   
    138000   0.42143306     0.030384202    0              0.45076368     0.89669174   
    138500   0.4384526      0.020458945    0              0.45781541     0.71467248   
    139000   0.40902793     0.020703591    0              0.42870895     0.74377569   
    139500   0.40608614     0.023119349    0              0.42819028     0.85680897   
    140000   0.38380854     0.021809563    0              0.40465858     0.83194844   
    140500   0.4219479      0.024263605    0              0.44515664     0.85501758   
    141000   0.36670297     0.024394187    0              0.3901804      0.85921227   
    141500   0.36422587     0.021460379    0              0.38477569     0.7208501    
    142000   0.34042913     0.017286045    0              0.3568641      0.66942879   
    142500   0.31572179     0.014471952    0              0.32940444     0.58360315   
    143000   0.28861482     0.01164568     0              0.29953896     0.55127779   
    143500   0.27030179     0.015867192    0              0.28549322     0.62846598   
    144000   0.25785479     0.012897441    0              0.2701076      0.57419005   
    144500   0.2627924      0.010085482    0              0.2722209      0.46900382   
    145000   0.25402714     0.0088660753   0              0.26225814     0.42962554   
    145500   0.2387433      0.011670831    0              0.24981727     0.50243619   
    146000   0.20672009     0.0069801697   0              0.21318346     0.40289759   
    146500   0.19330948     0.013533521    0              0.20635973     0.5564261    
    147000   0.18349402     0.0048407352   0              0.18787602     0.32653844   
    147500   0.17874353     0.0043253551   0              0.18262202     0.27729296   
    148000   0.17027759     0.0067556502   0              0.17660755     0.36417809   
    148500   0.15497581     0.0046160027   0              0.15920437     0.29488539   
    149000   0.12532718     0.0031995476   0              0.12821341     0.22068265   
    149500   0.11114644     0.0032526547   0              0.11412123     0.20053776   
    150000   0.10207118     0.0047681853   0              0.10658418     0.25189219   
Loop time of 2.41429 on 1 procs for 100000 steps with 400 atoms

Performance: 35786931.188 tau/day, 41420.059 timesteps/s, 16.568 Matom-step/s
98.9% CPU use with 1 MPI tasks x 1 OpenMP threads

MPI task timing breakdown:
Section |  min time  |  avg time  |  max time  |%varavg| %total
---------------------------------------------------------------
Pair    | 0.53974    | 0.53974    | 0.53974    |   0.0 | 22.36
Neigh   | 1.0332     | 1.0332     | 1.0332     |   0.0 | 42.80
Comm    | 0.13576    | 0.13576    | 0.13576    |   0.0 |  5.62
Output  | 0.0090889  | 0.0090889  | 0.0090889  |   0.0 |  0.38
Modify  | 0.52426    | 0.52426    | 0.52426    |   0.0 | 21.71
Other   |            | 0.1722     |            |       |  7.13

Nlocal:            400 ave         400 max         400 min
Histogram: 1 0 0 0 0 0 0 0 0 0
Nghost:             87 ave          87 max          87 min
Histogram: 1 0 0 0 0 0 0 0 0 0
Neighs:            495 ave         495 max         495 min
Histogram: 1 0 0 0 0 0 0 0 0 0

Total # of neighbors = 495
Ave neighs/atom = 1.2375
Neighbor list builds = 24640
Dangerous builds = 0
Total wall time: 0:00:03
Simulation density 0.6 completed.
LAMMPS (15 Sep 2022)
OMP_NUM_THREADS environment is not set. Defaulting to 1 thread. (src/comm.cpp:98)
  using 1 OpenMP thread(s) per MPI task
Lattice spacing in x,y,z = 1.1952286 1.1952286 1.1952286
Created orthogonal box = (0 0 -0.5976143) to (23.904572 23.904572 0.5976143)
  1 by 1 by 1 MPI processor grid
Created 400 atoms
  using lattice units in orthogonal box = (0 0 -0.5976143) to (23.904572 23.904572 0.5976143)
  create_atoms CPU = 0.000 seconds
Generated 0 of 0 mixed pair_coeff terms from geometric mixing rule
Neighbor list info ...
  update: every = 1 steps, delay = 0 steps, check = yes
  max neighbors/atom: 2000, page size: 100000
  master list distance cutoff = 1.3
  ghost atom cutoff = 1.3
  binsize = 0.65, bins = 37 37 2
  1 neighbor lists, perpetual/occasional/extra = 1 0 0
  (1) pair lj/cut, perpetual
      attributes: half, newton on
      pair build: half/bin/atomonly/newton
      stencil: half/bin/2d
      bin: standard
Setting up Verlet run ...
  Unit style    : lj
  Current step  : 0
  Time step     : 0.01
Per MPI rank memory allocation (min/avg/max) = 3.057 | 3.057 | 3.057 Mbytes
   Step          Temp          E_pair         E_mol          TotEng         Press     
         0   3              0              0              2.9925         2.09475      
       500   2.8822073      0.32964339     0              3.2046452      6.7475472    
      1000   2.9406975      0.42880767     0              3.3621535      7.6835108    
      1500   2.914027       0.48149576     0              3.3882377      8.2860812    
      2000   2.9374219      0.48601031     0              3.4160887      8.5160688    
      2500   3.1716262      0.35950916     0              3.5232063      7.331062     
      3000   2.9999359      0.54031495     0              3.532751       8.9214345    
      3500   3.285565       0.41497349     0              3.6923246      8.0050596    
      4000   3.2410965      0.4357008      0              3.6686945      7.9480721    
      4500   2.9450988      0.43870846     0              3.3764445      8.0271006    
      5000   2.9332199      0.46320197     0              3.3890888      8.1870493    
      5500   2.916338       0.33063911     0              3.2396862      6.8819717    
      6000   2.6765626      0.37909857     0              3.0489698      7.2260011    
      6500   2.7527646      0.39629983     0              3.1421826      7.5075124    
      7000   2.9146906      0.39032618     0              3.2977301      7.2936813    
      7500   2.9589241      0.45300744     0              3.4045342      8.0176698    
      8000   2.8916879      0.41638594     0              3.3008446      7.8881467    
      8500   2.8894252      0.47989392     0              3.3620956      8.0008538    
      9000   2.8904032      0.52898792     0              3.4121651      8.7493322    
      9500   3.0371094      0.49457374     0              3.5240904      8.6484978    
     10000   3.0082459      0.51693198     0              3.5176573      8.9112638    
     10500   3.0364092      0.48692599     0              3.5157442      8.5067057    
     11000   3.1750169      0.47200642     0              3.6390858      8.5529228    
     11500   3.1981973      0.50293812     0              3.6931399      8.6471665    
     12000   3.2043747      0.55964185     0              3.7560056      9.2737191    
     12500   3.1080766      0.41392392     0              3.5142303      7.9641635    
     13000   3.0063965      0.50686126     0              3.5057418      8.7385131    
     13500   3.0132734      0.39193809     0              3.3976783      7.4383558    
     14000   3.0433067      0.3614762      0              3.3971746      7.1859571    
     14500   2.7502855      0.41858245     0              3.1619922      7.4824947    
     15000   2.8121503      0.51565617     0              3.3207761      8.8961707    
     15500   2.9374479      0.49087428     0              3.4209785      8.3897583    
     16000   3.1658605      0.27033787     0              3.4282837      6.2367712    
     16500   3.0595503      0.46770128     0              3.5196027      8.3958179    
     17000   3.01033        0.45011757     0              3.4529217      7.9910644    
     17500   3.1068942      0.41781491     0              3.5169418      7.917727     
     18000   3.0567342      0.46267625     0              3.5117687      8.4343426    
     18500   3.1983809      0.30531676     0              3.4957017      6.6113272    
     19000   3.3109304      0.40071184     0              3.7033649      7.7111894    
     19500   3.2277005      0.45915622     0              3.6787874      8.2980512    
     20000   3.1523821      0.60853501     0              3.7530361      9.5965901    
     20500   3.0922415      0.43564043     0              3.5201513      7.9641415    
     21000   2.8445999      0.51031018     0              3.3477985      8.6179451    
     21500   2.7635049      0.48379254     0              3.2403887      8.2291719    
     22000   2.9124028      0.31718953     0              3.2223113      6.6933057    
     22500   2.8383515      0.26915359     0              3.1004092      6.0783682    
     23000   2.6951906      0.50657922     0              3.1950318      8.4695146    
     23500   3.0604078      0.29575234     0              3.3485091      6.3147017    
     24000   3.0180825      0.36306705     0              3.3736044      7.3148721    
     24500   2.8092332      0.40840751     0              3.2106176      7.7113368    
     25000   2.9598958      0.42404143     0              3.3765375      8.0858936    
     25500   3.0046261      0.41660876     0              3.4137233      7.8601697    
     26000   2.9264433      0.62960848     0              3.5487357      9.9555275    
     26500   3.09093        0.44592938     0              3.5291321      8.414415     
     27000   3.0537723      0.56007783     0              3.6062157      9.181365     
     27500   3.1982951      0.45698452     0              3.6472839      8.1669529    
     28000   3.1474522      0.42449215     0              3.5640758      8.2254113    
     28500   3.1284583      0.53456568     0              3.6552028      9.0655661    
     29000   3.0907898      0.49927378     0              3.5823366      8.2275541    
     29500   3.218616       0.47346239     0              3.6840318      8.3402971    
     30000   3.1017604      0.50424548     0              3.5982515      8.6148285    
     30500   3.0215552      0.50907444     0              3.5230758      8.8912625    
     31000   3.1661138      0.42844014     0              3.5866386      7.9477791    
     31500   2.8667015      0.48437912     0              3.3439139      8.6923236    
     32000   3.0610493      0.3553371      0              3.4087338      7.2575904    
     32500   2.946367       0.45552468     0              3.3945258      7.9486693    
     33000   3.0627179      0.38823478     0              3.4432959      7.7100004    
     33500   2.907046       0.45900458     0              3.3587829      8.1592162    
     34000   2.6949831      0.40745741     0              3.0957031      7.5352658    
     34500   2.7673741      0.46764704     0              3.2281027      8.3515452    
     35000   2.9017731      0.41665418     0              3.3111728      7.8345669    
     35500   2.8745155      0.43773768     0              3.3050669      8.2075294    
     36000   2.9015801      0.41815217     0              3.3124783      7.6341391    
     36500   2.9013156      0.4250719      0              3.3191342      8.016285     
     37000   3.2315556      0.42726163     0              3.6507384      8.1066513    
     37500   3.1152405      0.46517809     0              3.5726305      8.4742909    
     38000   3.1658142      0.41798205     0              3.5758817      7.8239802    
     38500   2.9740584      0.5556413      0              3.5222646      8.9786975    
     39000   2.9082616      0.55310262     0              3.4540935      9.1439075    
     39500   2.7208551      0.46995729     0              3.1840103      7.9863554    
     40000   2.7307224      0.45194706     0              3.1758427      7.9470182    
     40500   2.8511978      0.43574167     0              3.2798114      7.9873705    
     41000   2.927873       0.45423296     0              3.3747863      8.1085085    
     41500   3.0170657      0.48136049     0              3.4908835      8.2752908    
     42000   3.1242122      0.4621536      0              3.5785553      8.2227765    
     42500   3.2036629      0.49563522     0              3.6912889      8.5620183    
     43000   3.2125408      0.3586799      0              3.5631893      7.1190345    
     43500   3.0115324      0.3977543      0              3.4017579      7.6583778    
     44000   2.9895897      0.44511492     0              3.4272306      8.4725728    
     44500   2.9963768      0.31974952     0              3.3086354      6.6751968    
     45000   2.8584117      0.50737224     0              3.3586379      9.0311544    
     45500   2.9565326      0.34672554     0              3.2958668      7.0069935    
     46000   2.8827073      0.37206008     0              3.2475606      7.2383735    
     46500   2.6820771      0.4564722      0              3.1318441      7.8981155    
     47000   2.8166695      0.50262952     0              3.3122574      8.4734154    
     47500   3.0178539      0.37349071     0              3.3838         7.109991     
     48000   3.021378       0.44405286     0              3.4578774      8.2392168    
     48500   2.9047736      0.56987467     0              3.4673863      9.3376278    
     49000   3.1786939      0.44056065     0              3.6113078      7.8850415    
     49500   3.0849296      0.38586819     0              3.4630855      7.7350363    
     50000   3.0654219      0.51432933     0              3.5720877      8.9496481    
Loop time of 1.59166 on 1 procs for 50000 steps with 400 atoms

Performance: 27141450.417 tau/day, 31413.716 timesteps/s, 12.565 Matom-step/s
98.8% CPU use with 1 MPI tasks x 1 OpenMP threads

MPI task timing breakdown:
Section |  min time  |  avg time  |  max time  |%varavg| %total
---------------------------------------------------------------
Pair    | 0.36394    | 0.36394    | 0.36394    |   0.0 | 22.87
Neigh   | 0.77446    | 0.77446    | 0.77446    |   0.0 | 48.66
Comm    | 0.087549   | 0.087549   | 0.087549   |   0.0 |  5.50
Output  | 0.0047139  | 0.0047139  | 0.0047139  |   0.0 |  0.30
Modify  | 0.26248    | 0.26248    | 0.26248    |   0.0 | 16.49
Other   |            | 0.09851    |            |       |  6.19

Nlocal:            400 ave         400 max         400 min
Histogram: 1 0 0 0 0 0 0 0 0 0
Nghost:             88 ave          88 max          88 min
Histogram: 1 0 0 0 0 0 0 0 0 0
Neighs:            657 ave         657 max         657 min
Histogram: 1 0 0 0 0 0 0 0 0 0

Total # of neighbors = 657
Ave neighs/atom = 1.6425
Neighbor list builds = 16890
Dangerous builds = 0
Generated 0 of 0 mixed pair_coeff terms from geometric mixing rule
Setting up Verlet run ...
  Unit style    : lj
  Current step  : 50000
  Time step     : 0.01
Per MPI rank memory allocation (min/avg/max) = 3.084 | 3.084 | 3.084 Mbytes
   Step          Temp          E_pair         E_mol          TotEng         Press     
     50000   3.0654219      0.51432933     0              3.5720877      8.9496481    
     50500   3.1342357      0.47866718     0              3.6050673      8.2146193    
     51000   2.9472342      0.53820108     0              3.4780672      9.1063787    
     51500   2.8620325      0.38418371     0              3.2390611      7.173132     
     52000   2.8637195      0.41157145     0              3.2681316      7.2727159    
     52500   2.7819318      0.5320522      0              3.3070292      8.7145147    
     53000   2.7851956      0.41045118     0              3.1886838      7.5287555    
     53500   2.574918       0.50813504     0              3.0766158      8.4970947    
     54000   3.0321936      0.36657793     0              3.3911911      7.2030333    
     54500   2.9477448      0.44414335     0              3.3845188      8.1416244    
     55000   3.0071644      0.42954094     0              3.4291874      8.0287966    
     55500   2.8613277      0.46902964     0              3.323204       8.3066987    
     56000   2.854645       0.60340045     0              3.4509089      9.3263502    
     56500   2.8742407      0.37621012     0              3.2432653      7.5031155    
     57000   2.7604227      0.38468651     0              3.1382081      7.4067529    
     57500   2.5335538      0.44727933     0              2.9744992      7.817543     
     58000   2.6440337      0.44061617     0              3.0780398      7.7195389    
     58500   2.6450644      0.40713517     0              3.0455869      7.362103     
     59000   2.6783863      0.41640901     0              3.0880993      7.6449089    
     59500   2.6363362      0.41728864     0              3.047034       7.3915744    
     60000   2.4206026      0.40438503     0              2.8189362      7.090721     
     60500   2.5244273      0.39344916     0              2.9115654      6.8862134    
     61000   2.5388365      0.42956195     0              2.9620514      7.6154444    
     61500   2.571582       0.55340485     0              3.1185579      8.4623306    
     62000   3.1200778      0.34382569     0              3.4561033      7.2447635    
     62500   2.8560204      0.39212668     0              3.241007       7.6013618    
     63000   2.5883571      0.49442684     0              3.076313       8.061814     
     63500   2.4483009      0.60026317     0              3.0424433      9.489215     
     64000   2.7517364      0.41462809     0              3.1594851      7.4354598    
     64500   3.0031032      0.41500003     0              3.4105955      7.9926389    
     65000   2.6643527      0.40195676     0              3.0596486      7.4097222    
     65500   2.7647812      0.29633181     0              3.054201       6.2073658    
     66000   2.7201111      0.49752864     0              3.2108395      8.3492613    
     66500   2.7618461      0.39351588     0              3.1484574      7.4936556    
     67000   2.6587098      0.29365111     0              2.9457141      6.1683754    
     67500   2.5530384      0.30856221     0              2.855218       6.1826222    
     68000   2.476104       0.35402975     0              2.8239434      6.9452602    
     68500   2.4348719      0.32728514     0              2.7560698      6.4521815    
     69000   2.4600229      0.31571272     0              2.7695855      6.5069855    
     69500   2.3516486      0.36549452     0              2.711264       6.8317532    
     70000   2.2153587      0.382683       0              2.5925033      6.9743433    
     70500   2.3528203      0.30081291     0              2.6477512      6.0597639    
     71000   2.2317008      0.33873383     0              2.5648553      6.7101145    
     71500   2.3091556      0.30632856     0              2.6097113      6.1771901    
     72000   2.3207446      0.30248898     0              2.6174317      6.0969872    
     72500   2.1529139      0.40638225     0              2.5539138      7.1372849    
     73000   2.1477002      0.36185358     0              2.5041845      6.2460693    
     73500   2.2974665      0.2807547      0              2.5724775      6.0601911    
     74000   2.4157458      0.29073086     0              2.7004373      6.0827074    
     74500   2.425854       0.32361377     0              2.7434032      6.7043719    
     75000   2.3114264      0.33812894     0              2.6437768      6.6279887    
     75500   2.2813386      0.3339476      0              2.6095829      6.3990984    
     76000   2.4012925      0.33992291     0              2.7352122      6.5648934    
     76500   2.2993821      0.3364407      0              2.6300743      6.4702694    
     77000   2.2900691      0.30260364     0              2.5869476      6.1188237    
     77500   2.164033       0.34860298     0              2.5072259      6.6309776    
     78000   2.1691405      0.30194968     0              2.4656673      5.9732235    
     78500   2.0501903      0.27269487     0              2.3177597      5.5805302    
     79000   2.0542006      0.35809354     0              2.4071586      6.4063429    
     79500   2.1138271      0.21935592     0              2.3278984      4.8796381    
     80000   2.0799366      0.19758438     0              2.2723212      4.8963385    
     80500   2.0054412      0.30654189     0              2.3069695      5.92998      
     81000   2.1684045      0.34105958     0              2.5040431      6.3500811    
     81500   2.2258979      0.26824819     0              2.4885814      5.6347432    
     82000   2.1680114      0.25603502     0              2.4186264      5.5207911    
     82500   2.0917546      0.30904361     0              2.3955688      5.9255454    
     83000   2.1005054      0.27498571     0              2.3702399      5.6597321    
     83500   1.9614789      0.25688502     0              2.2134603      5.3401817    
     84000   2.0038464      0.27417458     0              2.2730113      5.545141     
     84500   1.9954456      0.23807822     0              2.2285352      5.0021976    
     85000   1.7784675      0.29234975     0              2.0663711      5.7055429    
     85500   1.8087094      0.23451104     0              2.0386986      4.9151103    
     86000   1.9897323      0.24837333     0              2.2331313      5.2575231    
     86500   2.0099869      0.25560034     0              2.2605622      5.5357247    
     87000   2.055877       0.31909874     0              2.369836       6.1634909    
     87500   2.1626932      0.27472087     0              2.4320074      5.674312     
     88000   1.9440282      0.27585454     0              2.2150226      5.7486177    
     88500   1.9272028      0.238034       0              2.1604188      4.9729338    
     89000   1.864632       0.26409413     0              2.1240645      5.313944     
     89500   1.8460386      0.25864232     0              2.1000658      5.311555     
     90000   1.8457929      0.25204585     0              2.0932243      5.3278821    
     90500   1.8052528      0.26131594     0              2.0620556      5.3649878    
     91000   1.6833585      0.23563673     0              1.9147868      4.8768959    
     91500   1.7607902      0.24635968     0              2.0027479      5.0956774    
     92000   1.6892476      0.23902839     0              1.9240529      4.8544446    
     92500   1.6617415      0.21562091     0              1.8732081      4.6327118    
     93000   1.7499991      0.2268143      0              1.9724384      4.6353303    
     93500   1.7753636      0.17102896     0              1.9419542      4.3070661    
     94000   1.7598589      0.21955331     0              1.9750126      4.6776701    
     94500   1.6780191      0.26777757     0              1.9416016      5.2203879    
     95000   1.7257268      0.21982307     0              1.9412355      4.8179257    
     95500   1.8875367      0.24989233     0              2.1327102      5.4341608    
     96000   1.7612498      0.26783445     0              2.0246812      5.1822007    
     96500   1.7619192      0.21911079     0              1.9766252      4.74742      
     97000   1.6882162      0.20909272     0              1.8930884      4.5916133    
     97500   1.5686986      0.24207591     0              1.8068528      4.8693388    
     98000   1.48102        0.20614151     0              1.6834589      4.4083496    
[...]
98.6% CPU use with 1 MPI tasks x 1 OpenMP threads

MPI task timing breakdown:
Section |  min time  |  avg time  |  max time  |%varavg| %total
---------------------------------------------------------------
Pair    | 0.77341    | 0.77341    | 0.77341    |   0.0 | 40.96
Neigh   | 0.66065    | 0.66065    | 0.66065    |   0.0 | 34.99
Comm    | 0.090831   | 0.090831   | 0.090831   |   0.0 |  4.81
Output  | 0.0048811  | 0.0048811  | 0.0048811  |   0.0 |  0.26
Modify  | 0.25935    | 0.25935    | 0.25935    |   0.0 | 13.73
Other   |            | 0.09925    |            |       |  5.26

Nlocal:            400 ave         400 max         400 min
Histogram: 1 0 0 0 0 0 0 0 0 0
Nghost:            116 ave         116 max         116 min
Histogram: 1 0 0 0 0 0 0 0 0 0
Neighs:           1188 ave        1188 max        1188 min
Histogram: 1 0 0 0 0 0 0 0 0 0

Total # of neighbors = 1188
Ave neighs/atom = 2.97
Neighbor list builds = 16838
Dangerous builds = 0
Generated 0 of 0 mixed pair_coeff terms from geometric mixing rule
Setting up Verlet run ...
  Unit style    : lj
  Current step  : 50000
  Time step     : 0.01
Per MPI rank memory allocation (min/avg/max) = 3.082 | 3.082 | 3.082 Mbytes
   Step          Temp          E_pair         E_mol          TotEng         Press     
     50000   3.15174        2.0762934      0              5.220154       44.217507    
     50500   3.1175283      2.0670289      0              5.1767634      45.46205     
     51000   3.1383111      2.0359483      0              5.1664135      44.521498    
     51500   3.1489748      2.1042209      0              5.2453232      44.271607    
     52000   3.1539461      2.1094779      0              5.2555391      44.86358     
     52500   3.2645611      2.0101781      0              5.2665778      44.448129    
     53000   3.1419808      2.0328723      0              5.1669982      43.722123    
     53500   3.0648877      2.0721267      0              5.1293522      44.549797    
     54000   3.1282854      2.0144074      0              5.1348721      43.742841    
     54500   2.8293187      1.9863825      0              4.8086279      42.776509    
     55000   2.8615834      1.9613266      0              4.815756       43.425218    
     55500   2.7349316      1.9473961      0              4.6754903      42.51581     
     56000   2.8239473      1.7165955      0              4.5334829      38.995093    
     56500   2.8684532      1.7663126      0              4.6275947      40.806519    
     57000   2.8027608      1.7667175      0              4.5624715      39.893704    
     57500   2.8527091      1.7306484      0              4.5762258      40.113357    
     58000   2.7255569      1.8532362      0              4.5719793      40.70162     
     58500   2.5939597      1.9670194      0              4.5544941      43.223016    
     59000   2.7331236      1.9571776      0              4.6834684      42.60774     
     59500   2.7137832      1.9760596      0              4.6830583      42.823321    
     60000   2.5438272      1.9018313      0              4.4392989      41.458669    
     60500   2.5102504      1.8313331      0              4.3353079      41.051246    
     61000   2.4597782      1.7942648      0              4.2478935      39.525838    
     61500   2.6204608      1.6485801      0              4.2624898      37.803647    
     62000   2.5413873      1.6652051      0              4.2002389      38.604423    
     62500   2.5268243      1.78369        0              4.3041972      39.258062    
     63000   2.6217194      1.6402129      0              4.255378       37.981523    
     63500   2.3855265      1.8081405      0              4.1877032      39.5786      
     64000   2.5163625      1.6406833      0              4.1507549      37.825243    
     64500   2.4446148      1.6974197      0              4.135923       38.319363    
     65000   2.6530705      1.7236121      0              4.3700499      39.666746    
     65500   2.7991496      1.7701995      0              4.5623513      39.309266    
     66000   2.5680291      1.8108064      0              4.3724155      40.033424    
     66500   2.6051189      1.6859598      0              4.2845658      38.376827    
     67000   2.3870732      1.7360445      0              4.11715        39.337575    
     67500   2.4696352      1.4712404      0              3.9347015      35.29475     
     68000   2.3466447      1.7468231      0              4.0876012      39.382783    
     68500   2.3527579      1.8685478      0              4.2154238      41.050718    
     69000   2.4299976      1.722064       0              4.1459866      38.929136    
     69500   2.3732581      1.68885        0              4.056175       38.097807    
     70000   2.4790713      1.5624499      0              4.0353236      36.760983    
     70500   2.468705       1.7202849      0              4.1828181      39.417995    
     71000   2.5440391      1.599556       0              4.1372351      37.418215    
     71500   2.4895066      1.5098879      0              3.9931708      36.576138    
     72000   2.3246464      1.5801936      0              3.8990284      37.031245    
     72500   2.3315652      1.4840895      0              3.8098258      35.506777    
     73000   2.3165007      1.7495729      0              4.0602823      39.277       
     73500   2.4698619      1.6835346      0              4.1472219      38.136587    
     74000   2.5839411      1.4353881      0              4.0128694      35.440044    
     74500   2.4792742      1.504438       0              3.977514       35.733037    
     75000   2.208798       1.5812228      0              3.7844988      36.986828    
     75500   2.1992674      1.3878882      0              3.5816575      33.80226     
     76000   2.2256554      1.4403838      0              3.6604751      34.254779    
     76500   2.2802869      1.4156379      0              3.6902241      34.351903    
     77000   2.2116582      1.4475768      0              3.6537059      35.137273    
     77500   2.1469621      1.6462742      0              3.7878689      36.929831    
     78000   2.1729356      1.6785601      0              3.8460633      37.992389    
     78500   2.369505       1.4533775      0              3.8169587      34.833393    
     79000   2.3664919      1.3324764      0              3.693052       32.909503    
     79500   2.167283       1.5140406      0              3.6759054      35.27724     
     80000   2.1048765      1.5177236      0              3.6173378      36.356904    
     80500   1.9142229      1.5646595      0              3.4740969      36.344825    
     81000   2.15211        1.3991655      0              3.5458953      34.046535    
     81500   2.2840715      1.3714726      0              3.649834       33.718927    
     82000   2.1489153      1.3707169      0              3.5142599      33.076409    
     82500   2.0156003      1.3633821      0              3.3739434      33.203392    
     83000   2.0711787      1.4271259      0              3.4931267      33.962232    
     83500   2.1298495      1.2944501      0              3.4189749      32.455414    
     84000   2.052338       1.4512609      0              3.498468       34.345242    
     84500   2.0330843      1.3133531      0              3.3413547      32.598247    
     85000   1.9058051      1.2156554      0              3.116696       30.841907    
     85500   1.8047466      1.2641858      0              3.0644206      32.03052     
     86000   2.024415       1.1951919      0              3.2145459      30.335894    
     86500   1.8378878      1.4059813      0              3.2392743      33.820344    
     87000   1.9369349      1.4100631      0              3.3421556      33.92089     
     87500   1.8729602      1.314907       0              3.1831848      32.399582    
     88000   1.8602687      1.1831682      0              3.0387863      29.928925    
     88500   1.9214806      1.1913893      0              3.1080661      30.288979    
     89000   1.7419049      1.3354788      0              3.0730289      32.075765    
     89500   1.7363101      1.2044025      0              2.9363719      30.553623    
     90000   1.8315165      1.1616403      0              2.9885779      29.529858    
     90500   1.7705015      1.2479808      0              3.0140561      30.573994    
     91000   1.7446789      1.3006153      0              3.0409325      31.830811    
     91500   1.8276522      1.2051147      0              3.0281978      31.229939    
     92000   1.9540013      1.2209667      0              3.1700831      31.157213    
     92500   1.8081567      1.2342215      0              3.0378578      30.977962    
     93000   1.8456816      1.2703802      0              3.1114476      31.685747    
     93500   1.7463193      1.056796       0              2.7987495      28.303603    
     94000   1.6356131      1.1462444      0              2.7777685      29.344157    
     94500   1.707828       1.0405561      0              2.7441145      28.103338    
     95000   1.625469       1.0787446      0              2.7001499      27.998027    
     95500   1.5482969      1.114245       0              2.6586712      28.996066    
     96000   1.618474       1.1733134      0              2.7877413      29.591861    
     96500   1.6276458      1.088309       0              2.7118857      28.3285      
     97000   1.6859527      1.0599968      0              2.7417347      28.077931    
     97500   1.7590695      1.0085399      0              2.7632118      27.405223    
     98000   1.6197436      1.1373703      0              2.7530646      29.355324    
     98500   1.577129       0.93290811     0              2.5060943      25.921155    
     99000   1.5057639      1.0456677      0              2.5476671      27.426718    
     99500   1.4833427      0.99625054     0              2.4758849      26.828037    
    100000   1.5288514      1.0644368      0              2.589466       27.83168     
    100500   1.5731099      1.1151358      0              2.6843129      29.166894    
    101000   1.7516527      1.0510909      0              2.7983645      28.021391    
    101500   1.6190093      0.9279346      0              2.5428963      26.222645    
    102000   1.5002585      0.99014253     0              2.4866504      26.787408    
    102500   1.4117173      0.97839928     0              2.3865873      26.359713    
    103000   1.3833038      1.0009797      0              2.3808252      27.259369    
    103500   1.4082727      0.91539824     0              2.3201502      26.154675    
    104000   1.4191237      0.94422877     0              2.3598046      25.978972    
    104500   1.4018672      0.8698048      0              2.2681673      24.497668    
    105000   1.4491682      0.83471589     0              2.2802611      23.692315    
    105500   1.3482852      0.8981585      0              2.243073       24.835967    
    106000   1.4962408      0.82602764     0              2.3185278      24.09225     
    106500   1.4032223      1.0046821      0              2.4043963      26.468845    
    107000   1.427539       0.99631525     0              2.4202854      26.609891    
    107500   1.3158515      0.91993353     0              2.2324954      25.256605    
    108000   1.3130867      0.84753461     0              2.1573386      24.07922     
    108500   1.2729183      0.81523631     0              2.0849723      23.584475    
    109000   1.2619417      0.78731742     0              2.0461043      23.466957    
    109500   1.1909872      0.80273479     0              1.9907446      23.523036    
    110000   1.1277581      0.78489774     0              1.9098364      22.740153    
    110500   1.1824381      0.78143371     0              1.9609157      23.595564    
    111000   1.1887283      0.8391928      0              2.0249492      24.384472    
    111500   1.224238       0.81187198     0              2.0330494      23.458527    
    112000   1.1878737      0.81216016     0              1.9970641      22.95466     
    112500   1.2033236      0.74796637     0              1.9482817      22.408141    
    113000   1.1528102      0.74720134     0              1.8971296      22.810278    
    113500   1.098639       0.80802206     0              1.9039144      22.639116    
    114000   1.1168615      0.82681982     0              1.9408892      23.576653    
    114500   1.1124176      0.79185413     0              1.9014907      22.982517    
    115000   1.0826539      0.72602474     0              1.805972       21.396612    
    115500   1.0576932      0.75656369     0              1.8116127      22.323192    
    116000   1.0746312      0.70294805     0              1.7748927      21.04891     
    116500   1.1011259      0.67402892     0              1.772402       20.556696    
    117000   1.0607712      0.65282245     0              1.7109418      20.252144    
    117500   0.98288462     0.675624       0              1.6560514      20.703764    
    118000   0.92546269     0.58213716     0              1.5052862      18.469894    
    118500   1.0337329      0.6385674      0              1.6697159      19.766351    
    119000   1.0309337      0.63220887     0              1.6605653      20.229093    
    119500   1.0388959      0.59242076     0              1.6287195      18.830108    
    120000   1.0200708      0.59023921     0              1.6077599      18.949139    
    120500   0.93109875     0.63835068     0              1.5671217      19.747802    
    121000   0.87900687     0.61403908     0              1.4908484      19.281862    
    121500   0.86549058     0.60276995     0              1.4660968      18.825079    
    122000   0.88934857     0.54805288     0              1.4351781      18.177954    
    122500   0.88124146     0.52670061     0              1.405739       17.509509    
    123000   0.77826326     0.61830028     0              1.3946179      19.168841    
    123500   0.78656145     0.58429973     0              1.3688948      19.047298    
    124000   0.79950607     0.50129544     0              1.2988027      16.968489    
    124500   0.75042726     0.51970424     0              1.2682554      17.237094    
    125000   0.81013355     0.49076761     0              1.2988758      16.819854    
    125500   0.81329496     0.51262677     0              1.3238885      17.244661    
    126000   0.83167188     0.46848638     0              1.2980791      16.401808    
    126500   0.83446616     0.52499851     0              1.3573785      17.695827    
    127000   0.77363942     0.52633034     0              1.2980357      17.58748     
    127500   0.81016668     0.49843711     0              1.3065784      16.643933    
    128000   0.66360281     0.49554951     0              1.1574933      17.222324    
    128500   0.73512291     0.43114155     0              1.1644267      15.525727    
    129000   0.66143832     0.45831982     0              1.1181045      16.060841    
    129500   0.69228242     0.4282276      0              1.1187793      14.947385    
    130000   0.62935678     0.45147413     0              1.0792575      15.70813     
    130500   0.65819786     0.39459554     0              1.0511479      14.571514    
    131000   0.65604276     0.36237528     0              1.0167779      13.892462    
    131500   0.70734254     0.33568418     0              1.0412584      13.458235    
    132000   0.65578671     0.37256255     0              1.0267098      14.288199    
    132500   0.60225851     0.43268539     0              1.0334383      15.201937    
    133000   0.59464828     0.359022       0              0.95218366     13.272926    
    133500   0.5695819      0.33752746     0              0.90568541     13.375875    
    134000   0.54981671     0.3696453      0              0.91808746     13.978935    
    134500   0.58044333     0.37572417     0              0.9547164      13.921523    
    135000   0.52859783     0.4071058      0              0.93438213     14.674942    
    135500   0.53662943     0.35468465     0              0.8899725      13.624712    
    136000   0.52602151     0.30314324     0              0.8278497      12.109732    
    136500   0.44014853     0.35348568     0              0.79253384     13.331267    
    137000   0.45871278     0.29206925     0              0.74963524     12.120877    
    137500   0.46148549     0.270335       0              0.73066678     11.265069    
    138000   0.41565201     0.28970885     0              0.70432173     11.837214    
    138500   0.44946773     0.25972387     0              0.70806793     11.177005    
    139000   0.44727512     0.27064704     0              0.71680397     11.316978    
    139500   0.43809776     0.2627826      0              0.69978511     10.901996    
    140000   0.40340819     0.21798083     0              0.62038049     10.13387     
    140500   0.36411973     0.23296596     0              0.59617539     10.341364    
    141000   0.32984027     0.23611728     0              0.56513295     10.1716      
    141500   0.34094667     0.20544579     0              0.5455401      9.5849151    
    142000   0.31487561     0.20489074     0              0.51897916     9.4906063    
    142500   0.33147596     0.20036717     0              0.53101444     9.2267015    
    143000   0.32402482     0.16875705     0              0.49197181     8.5342536    
    143500   0.28885832     0.17536995     0              0.46350613     8.6673498    
    144000   0.26231767     0.16999728     0              0.43165916     8.7238536    
    144500   0.27046715     0.13077769     0              0.40056867     7.3193338    
    145000   0.24543289     0.14817181     0              0.39299112     7.6039445    
    145500   0.25002937     0.13836981     0              0.3877741      7.4377218    
    146000   0.22419713     0.12532543     0              0.34896207     6.9766628    
    146500   0.22718157     0.1220518      0              0.34866541     6.9351302    
    147000   0.18396325     0.10213492     0              0.28563827     6.1395196    
    147500   0.16877813     0.097575036    0              0.26593122     5.9852127    
    148000   0.15442963     0.084251013    0              0.23829457     5.3737708    
    148500   0.14136992     0.084409285    0              0.22542578     5.5457434    
    149000   0.12390951     0.067176743    0              0.19077648     4.7799278    
    149500   0.11858156     0.062795141    0              0.18108025     4.4866644    
    150000   0.094208872    0.052153211    0              0.14612656     4.0023053    
Loop time of 3.131 on 1 procs for 100000 steps with 400 atoms

Performance: 27595002.310 tau/day, 31938.660 timesteps/s, 12.775 Matom-step/s
99.0% CPU use with 1 MPI tasks x 1 OpenMP threads

MPI task timing breakdown:
Section |  min time  |  avg time  |  max time  |%varavg| %total
---------------------------------------------------------------
Pair    | 1.4471     | 1.4471     | 1.4471     |   0.0 | 46.22
Neigh   | 0.84252    | 0.84252    | 0.84252    |   0.0 | 26.91
Comm    | 0.14209    | 0.14209    | 0.14209    |   0.0 |  4.54
Output  | 0.010192   | 0.010192   | 0.010192   |   0.0 |  0.33
Modify  | 0.51856    | 0.51856    | 0.51856    |   0.0 | 16.56
Other   |            | 0.1705     |            |       |  5.45

Nlocal:            400 ave         400 max         400 min
Histogram: 1 0 0 0 0 0 0 0 0 0
Nghost:            116 ave         116 max         116 min
Histogram: 1 0 0 0 0 0 0 0 0 0
Neighs:           1194 ave        1194 max        1194 min
Histogram: 1 0 0 0 0 0 0 0 0 0

Total # of neighbors = 1194
Ave neighs/atom = 2.985
Neighbor list builds = 23181
Dangerous builds = 0
Total wall time: 0:00:05
Simulation density 1.1 completed.
