ITEM: TIMESTEP
100000
ITEM: NUMBER OF ATOMS
2048
ITEM: BOX BOUNDS pp pp pp
0.0000000000000000e+00 1.1635780856594225e+01
0.0000000000000000e+00 1.1635780856594225e+01
0.0000000000000000e+00 1.1635780856594225e+01
ITEM: ATOMS id type xs ys zs
5 1 0.128132 0.00445324 0.00432125
6 1 0.187767 0.0650113 0.000691138
13 1 0.378176 0.997037 0.996722
21 1 0.627164 0.999311 0.00307343
25 1 0.752634 0.00441651 0.992712
29 1 0.868483 0.986793 0.00451476
2 1 0.0626001 0.0573626 0.994372
37 1 0.126684 0.125699 0.996416
18 1 0.564924 0.0608727 0.00383997
22 1 0.68182 0.0648448 0.997749
26 1 0.816238 0.0646884 -0.000467508
47 1 0.437702 0.123728 0.0607773
49 1 0.501791 0.119306 0.00338214
53 1 0.621142 0.12702 0.995856
57 1 0.752149 0.122088 -0.000268971
61 1 0.880457 0.115906 0.99653
34 1 0.0636901 0.193333 0.992928
38 1 0.19019 0.184167 0.987189
50 1 0.557417 0.185856 0.998517
54 1 0.691277 0.180894 0.00195057
58 1 0.811001 0.18616 0.992456
62 1 0.945788 0.191759 0.996095
67 1 0.0642088 0.24945 0.0571672
69 1 0.130377 0.247351 0.997005
73 1 0.2569 0.250945 0.994092
81 1 0.503332 0.258486 0.99713
83 1 0.559856 0.24387 0.0621853
85 1 0.621248 0.247751 0.00827154
89 1 0.754758 0.258033 1.00098
65 1 0.0028867 0.254053 0.994915
70 1 0.181715 0.314318 0.000401863
74 1 0.309145 0.314887 0.995108
80 1 0.371613 0.311478 0.054752
86 1 0.691574 0.315586 0.997406
96 1 0.877675 0.313365 0.0614689
99 1 0.0597326 0.379106 0.0633523
105 1 0.236679 0.374661 0.00164029
109 1 0.376214 0.374088 0.996689
119 1 0.695846 0.37446 0.0577931
121 1 0.753872 0.382023 0.996325
97 1 0.997335 0.37865 0.00747117
104 1 0.118313 0.438641 0.0646965
102 1 0.17707 0.437067 0.00408883
108 1 0.251728 0.438193 0.0613525
110 1 0.434238 0.443056 0.00557422
122 1 0.811626 0.438636 1.00099
126 1 0.932274 0.443522 0.00409817
133 1 0.117088 0.500839 0.00180697
139 1 0.31005 0.497132 0.0564988
141 1 0.372016 0.498063 0.992036
145 1 0.503358 0.502088 0.994787
147 1 0.558014 0.502762 0.0545629
151 1 0.687077 0.499324 0.058537
157 1 0.866578 0.501721 0.0102653
136 1 0.124896 0.555313 0.0744424
150 1 0.684624 0.568517 0.0067602
163 1 0.0660359 0.629504 0.0641336
169 1 0.239759 0.624157 1.00077
171 1 0.307397 0.625337 0.0586435
181 1 0.619964 0.623194 0.999405
185 1 0.751604 0.62902 0.998196
189 1 0.884831 0.629867 0.00495422
191 1 0.93589 0.623513 0.067814
164 1 0.996571 0.689317 0.0655033
168 1 0.127673 0.692431 0.0726714
172 1 0.247715 0.687314 0.0668664
170 1 0.317743 0.688863 0.995725
176 1 0.380625 0.68952 0.0585369
174 1 0.441483 0.683346 0.990003
178 1 0.557127 0.690082 0.996695
188 1 0.760017 0.684166 0.0590346
186 1 0.820987 0.683956 0.994888
195 1 0.0679802 0.753167 0.0627915
213 1 0.635106 0.750951 0.00947353
215 1 0.69687 0.754461 0.0660673
217 1 0.753907 0.751495 0.00567998
219 1 0.818217 0.756383 0.0615455
198 1 0.189728 0.805987 0.997082
202 1 0.320101 0.807665 0.00951513
208 1 0.382202 0.808111 0.0630867
216 1 0.622684 0.816216 0.0665814
220 1 0.75486 0.815626 0.0628846
218 1 0.81622 0.816832 0.995758
243 1 0.565564 0.872537 0.0697218
247 1 0.689937 0.873045 0.0643739
255 1 0.936011 0.880241 0.063911
232 1 0.116809 0.941213 0.0589677
234 1 0.315731 0.926492 0.00360109
242 1 0.564562 0.934775 0.00345758
254 1 0.938384 0.93689 0.00566343
3 1 0.0546682 0.00727065 0.0611432
240 1 0.377288 0.934034 0.0687065
250 1 0.807099 0.927254 0.00106734
7 1 0.19303 0.995352 0.059619
11 1 0.315886 0.992988 0.0602962
15 1 0.434498 0.00129873 0.0657356
19 1 0.56206 0.997633 0.0597475
23 1 0.68944 0.00143881 0.0516116
27 1 0.801699 0.995132 0.0565631
8 1 0.119182 0.0595547 0.0656924
39 1 0.184907 0.128525 0.0585556
12 1 0.245036 0.0582891 0.0596627
16 1 0.376941 0.0663618 0.0525464
20 1 0.498719 0.0603515 0.0652366
24 1 0.622328 0.0588826 0.0624331
28 1 0.742723 0.0667497 0.0632355
32 1 0.879272 0.0548589 0.052945
4 1 0.999114 0.0638589 0.0672694
35 1 0.0583947 0.120754 0.0617473
43 1 0.309829 0.130657 0.0576377
51 1 0.561433 0.119726 0.0721239
55 1 0.681264 0.124894 0.0628934
59 1 0.815608 0.126928 0.0621446
63 1 0.936524 0.129254 0.0585261
40 1 0.124478 0.184492 0.0549385
44 1 0.254498 0.198051 0.0514431
48 1 0.37149 0.189489 0.0608224
52 1 0.498238 0.180524 0.0681478
56 1 0.621101 0.186834 0.0638338
60 1 0.756756 0.190614 0.0649768
64 1 0.887976 0.191885 0.0582008
36 1 0.00654278 0.184544 0.0595121
71 1 0.188042 0.251794 0.0628804
75 1 0.311533 0.254613 0.05927
79 1 0.445472 0.244329 0.0642819
87 1 0.691445 0.244374 0.0631768
91 1 0.818413 0.251835 0.0645881
95 1 0.941494 0.256641 0.0645149
72 1 0.119824 0.311765 0.0722128
76 1 0.250184 0.310773 0.054693
84 1 0.50213 0.315016 0.0606671
88 1 0.628271 0.317266 0.0583969
92 1 0.753102 0.311942 0.0614418
68 1 0.00540646 0.314128 0.0632603
103 1 0.17927 0.373181 0.0610262
107 1 0.319456 0.375571 0.0562478
111 1 0.438921 0.369332 0.0587919
115 1 0.555072 0.383098 0.061309
123 1 0.815383 0.371555 0.0643161
127 1 0.932779 0.372402 0.0632347
358 1 0.183983 0.430604 0.123879
112 1 0.373009 0.440062 0.059321
116 1 0.498645 0.438665 0.0586541
370 1 0.560526 0.444408 0.116854
120 1 0.62971 0.436157 0.0610726
124 1 0.747577 0.442906 0.0663525
128 1 0.872021 0.434394 0.0654149
100 1 0.994946 0.44242 0.0632125
131 1 0.0621449 0.503602 0.0627513
135 1 0.184544 0.492969 0.0623781
143 1 0.446549 0.505202 0.0648341
401 1 0.504431 0.507009 0.129897
155 1 0.807414 0.506961 0.0696377
159 1 0.936519 0.503145 0.0687654
140 1 0.244054 0.5625 0.0643331
144 1 0.385245 0.56236 0.0628612
148 1 0.503155 0.563034 0.0535664
152 1 0.618301 0.560359 0.0620449
406 1 0.682545 0.560248 0.121134
156 1 0.74784 0.564322 0.0667357
160 1 0.874613 0.56529 0.0654191
132 1 0.995901 0.564953 0.0614102
167 1 0.189293 0.625337 0.0679944
175 1 0.439933 0.624947 0.0683496
179 1 0.564563 0.621932 0.059425
183 1 0.679978 0.621442 0.0641525
187 1 0.816307 0.627397 0.0566543
418 1 0.0660066 0.686613 0.12471
180 1 0.503988 0.680837 0.0644136
184 1 0.622025 0.684875 0.0599941
442 1 0.825025 0.688033 0.125274
192 1 0.880542 0.687632 0.0681543
199 1 0.189779 0.752404 0.0708143
203 1 0.318673 0.746971 0.0666952
207 1 0.440648 0.749706 0.0578742
211 1 0.56088 0.748474 0.0586349
477 1 0.883535 0.75473 0.122499
223 1 0.943678 0.746811 0.0632295
196 1 0.00638308 0.809971 0.0622553
200 1 0.127144 0.81116 0.0608686
204 1 0.257204 0.808721 0.0653444
212 1 0.502287 0.816989 0.0710676
224 1 0.879092 0.809022 0.0567911
227 1 0.0653466 0.876313 0.0686589
485 1 0.122041 0.872859 0.123475
231 1 0.188829 0.869517 0.0648482
235 1 0.323203 0.869461 0.0673601
501 1 0.631165 0.878604 0.12524
251 1 0.812463 0.868037 0.0574332
236 1 0.251056 0.927472 0.0620612
239 1 0.436942 0.87592 0.0607143
244 1 0.491779 0.935532 0.0687158
252 1 0.746521 0.934918 0.0693085
256 1 0.87346 0.940155 0.0699434
228 1 0.00505287 0.939744 0.0573176
248 1 0.631764 0.938358 0.0610693
31 1 0.937431 0.999873 0.0598069
262 1 0.182603 0.0740505 0.118908
266 1 0.30608 0.0623581 0.121912
281 1 0.753595 0.00664732 0.128173
285 1 0.872567 0.0057846 0.121335
257 1 0.000587902 0.000901053 0.121775
258 1 0.0645237 0.0585375 0.129594
297 1 0.247647 0.127241 0.115044
270 1 0.433709 0.0618331 0.12418
274 1 0.558311 0.0573582 0.121866
278 1 0.687711 0.0646235 0.119794
282 1 0.810686 0.0768006 0.126206
286 1 0.939587 0.0623213 0.12555
293 1 0.116705 0.125214 0.121148
301 1 0.377381 0.124938 0.123883
305 1 0.504659 0.121054 0.13112
309 1 0.623643 0.124232 0.12807
313 1 0.741831 0.127614 0.126692
317 1 0.876921 0.121544 0.119554
289 1 0.993573 0.123435 0.134242
290 1 0.0568375 0.19149 0.122066
294 1 0.192927 0.190877 0.115767
298 1 0.317544 0.187767 0.121515
302 1 0.434867 0.182153 0.124366
306 1 0.561943 0.182675 0.122178
310 1 0.683867 0.188411 0.126006
314 1 0.804675 0.184041 0.130752
318 1 0.938314 0.188458 0.129845
321 1 0.99762 0.248019 0.121066
325 1 0.12506 0.235514 0.12693
329 1 0.254914 0.243932 0.116757
333 1 0.374474 0.256762 0.115005
337 1 0.503361 0.245295 0.13023
341 1 0.627974 0.248185 0.121078
345 1 0.751761 0.253413 0.120872
349 1 0.883197 0.249809 0.120645
322 1 0.0577867 0.301362 0.124991
326 1 0.181307 0.313942 0.126346
330 1 0.314482 0.315168 0.115878
334 1 0.436498 0.317534 0.124359
338 1 0.562454 0.314094 0.120985
342 1 0.69113 0.31729 0.121939
346 1 0.811906 0.308045 0.124619
350 1 0.936677 0.312593 0.123219
353 1 0.000896211 0.369428 0.128014
357 1 0.114718 0.377526 0.12613
361 1 0.252578 0.376284 0.124386
365 1 0.374529 0.37164 0.117983
369 1 0.499112 0.375498 0.126248
373 1 0.621568 0.37387 0.118828
377 1 0.75133 0.379373 0.116879
381 1 0.867402 0.374189 0.126251
354 1 0.057237 0.44339 0.120163
362 1 0.309432 0.439421 0.117937
366 1 0.434278 0.43797 0.115002
374 1 0.687103 0.434511 0.12614
378 1 0.810072 0.440463 0.12362
382 1 0.939952 0.428182 0.12716
389 1 0.129406 0.492596 0.132498
393 1 0.238133 0.49597 0.124335
397 1 0.382712 0.499792 0.117591
405 1 0.630272 0.496599 0.123397
409 1 0.740056 0.49928 0.129306
413 1 0.86838 0.508793 0.131288
385 1 0.997255 0.504255 0.122073
386 1 0.0555697 0.561952 0.122962
390 1 0.181288 0.56157 0.132215
394 1 0.30659 0.55268 0.116064
398 1 0.43593 0.561569 0.128094
402 1 0.56635 0.56277 0.123791
410 1 0.808835 0.564854 0.135976
414 1 0.936337 0.566722 0.124063
421 1 0.126481 0.621022 0.127586
425 1 0.254417 0.620707 0.12166
429 1 0.365762 0.618142 0.121738
433 1 0.502636 0.615814 0.126058
437 1 0.626179 0.622006 0.124351
441 1 0.752295 0.637601 0.133042
443 1 0.81223 0.632835 0.195189
445 1 0.877062 0.619877 0.131616
417 1 0.999423 0.625723 0.120927
422 1 0.186518 0.689856 0.128991
426 1 0.313224 0.685621 0.12672
430 1 0.434996 0.68155 0.129562
434 1 0.561264 0.69035 0.128538
438 1 0.68557 0.687792 0.119691
446 1 0.937991 0.682181 0.127679
453 1 0.123545 0.755128 0.125466
457 1 0.257406 0.747627 0.125135
461 1 0.381859 0.762441 0.130957
465 1 0.497424 0.74154 0.123478
469 1 0.623041 0.749278 0.114241
473 1 0.758253 0.752016 0.121559
449 1 0.997454 0.759075 0.132011
450 1 0.0557505 0.818772 0.131566
454 1 0.187336 0.815177 0.121122
460 1 0.248768 0.812789 0.181858
458 1 0.310032 0.813313 0.129924
462 1 0.442121 0.820607 0.127199
466 1 0.568652 0.80864 0.126661
470 1 0.686464 0.816854 0.121567
474 1 0.820557 0.819719 0.121619
478 1 0.938062 0.817681 0.119775
489 1 0.247188 0.870251 0.125785
493 1 0.376348 0.869513 0.13045
497 1 0.506203 0.877069 0.126237
505 1 0.748687 0.875572 0.124506
509 1 0.883366 0.877195 0.125328
481 1 0.99948 0.873212 0.12446
482 1 0.0576048 0.936337 0.130161
486 1 0.18519 0.935681 0.119054
490 1 0.307865 0.935385 0.129698
494 1 0.438959 0.923591 0.13166
498 1 0.567331 0.935696 0.121372
502 1 0.686114 0.942152 0.132018
506 1 0.8104 0.945681 0.125608
261 1 0.124272 0.989834 0.129022
265 1 0.250649 0.998647 0.120607
269 1 0.367568 0.00257821 0.125648
273 1 0.494324 0.993213 0.127647
277 1 0.619963 0.000391205 0.119483
510 1 0.947465 0.940665 0.116164
268 1 0.252372 0.0672528 0.182974
271 1 0.436797 0.0109826 0.188702
280 1 0.631297 0.0575773 0.181471
283 1 0.812071 0.0153798 0.187239
287 1 0.934523 0.999949 0.186641
264 1 0.128265 0.0605785 0.192779
272 1 0.370943 0.0576457 0.191132
276 1 0.49778 0.0642054 0.192756
284 1 0.74638 0.0690489 0.18253
288 1 0.873573 0.0671637 0.182289
260 1 0.994807 0.0578129 0.189139
291 1 0.062915 0.13434 0.186387
295 1 0.18583 0.135665 0.183487
299 1 0.305648 0.133797 0.184491
303 1 0.440098 0.121169 0.191992
307 1 0.564001 0.125489 0.190363
311 1 0.68144 0.126531 0.196269
315 1 0.802399 0.124798 0.196361
319 1 0.929731 0.13891 0.188145
296 1 0.127126 0.189837 0.194833
300 1 0.247693 0.19906 0.19219
304 1 0.3706 0.188737 0.185439
308 1 0.501228 0.18047 0.18906
312 1 0.625011 0.187696 0.196048
316 1 0.738868 0.18729 0.181887
320 1 0.865678 0.196471 0.183735
292 1 0.00114773 0.192201 0.189974
323 1 0.067839 0.253129 0.187717
327 1 0.179328 0.252578 0.188381
331 1 0.320674 0.253748 0.177072
335 1 0.429813 0.248046 0.182578
339 1 0.563939 0.255033 0.181957
343 1 0.682964 0.254989 0.187209
347 1 0.806815 0.252844 0.192258
351 1 0.938674 0.250391 0.181283
328 1 0.122197 0.313713 0.184012
332 1 0.250043 0.305228 0.178049
336 1 0.373897 0.315681 0.197955
340 1 0.490344 0.307967 0.186003
344 1 0.620293 0.311769 0.179197
348 1 0.752184 0.318963 0.186527
352 1 0.872372 0.308969 0.18221
324 1 0.00099424 0.306235 0.185009
355 1 0.0631742 0.370381 0.190603
359 1 0.18971 0.375396 0.181407
363 1 0.30777 0.379583 0.190543
367 1 0.437817 0.374031 0.178814
371 1 0.562475 0.378032 0.181511
375 1 0.692411 0.367552 0.18556
379 1 0.811836 0.378456 0.187739
383 1 0.934126 0.375394 0.187645
360 1 0.121113 0.436106 0.193656
364 1 0.24945 0.437535 0.185762
368 1 0.371635 0.435783 0.17423
372 1 0.502547 0.435666 0.183658
376 1 0.628652 0.432851 0.187213
380 1 0.74634 0.436936 0.187873
384 1 0.870592 0.446479 0.184235
356 1 -0.000418276 0.440199 0.18429
387 1 0.0615282 0.496997 0.187815
391 1 0.187662 0.495396 0.193345
395 1 0.307418 0.499559 0.187081
399 1 0.439187 0.491945 0.184579
403 1 0.566908 0.490147 0.187303
407 1 0.682466 0.499049 0.187919
411 1 0.803603 0.50004 0.184564
415 1 0.933567 0.506576 0.191596
388 1 0.00126919 0.561532 0.187512
392 1 0.117867 0.563131 0.186225
396 1 0.244041 0.554515 0.184614
400 1 0.37099 0.558616 0.182221
404 1 0.510342 0.5677 0.189595
408 1 0.62813 0.558668 0.185127
412 1 0.74546 0.565499 0.18892
416 1 0.869176 0.561094 0.199206
419 1 0.0569346 0.622736 0.185986
423 1 0.191895 0.628673 0.188145
427 1 0.315994 0.634458 0.18477
431 1 0.433138 0.621359 0.185554
435 1 0.566723 0.629274 0.187317
439 1 0.690535 0.628386 0.183533
447 1 0.939918 0.625843 0.189725
420 1 0.00406833 0.6959 0.189119
424 1 0.120646 0.69703 0.193128
428 1 0.254688 0.686056 0.188919
432 1 0.379456 0.688847 0.194088
436 1 0.498199 0.684139 0.187331
440 1 0.629302 0.696207 0.180341
444 1 0.754111 0.695701 0.193509
448 1 0.880475 0.685154 0.193222
451 1 0.062824 0.759699 0.189516
455 1 0.18628 0.748445 0.192258
459 1 0.313525 0.752178 0.194338
463 1 0.4417 0.745531 0.188727
467 1 0.565667 0.747016 0.191562
471 1 0.691084 0.747837 0.182751
475 1 0.815409 0.75342 0.184324
479 1 0.940254 0.744968 0.192338
456 1 0.130495 0.82645 0.189988
464 1 0.369859 0.815123 0.196388
468 1 0.501106 0.807356 0.179364
472 1 0.629354 0.809218 0.184285
476 1 0.75185 0.811929 0.17583
480 1 0.885593 0.817151 0.186702
452 1 0.995261 0.812145 0.191255
483 1 0.0602819 0.883703 0.188434
487 1 0.197456 0.875719 0.18781
495 1 0.433238 0.868516 0.198429
499 1 0.571326 0.871189 0.182791
503 1 0.680096 0.877002 0.186529
507 1 0.808572 0.874396 0.182638
511 1 0.937369 0.88075 0.190708
488 1 0.133445 0.931879 0.187697
492 1 0.251433 0.936613 0.192946
491 1 0.310928 0.867582 0.193753
496 1 0.379976 0.933699 0.183932
500 1 0.495795 0.924159 0.199416
484 1 0.000133837 0.940038 0.196716
259 1 0.0612137 0.00196125 0.192565
263 1 0.194936 0.999614 0.184976
267 1 0.313383 1.00017 0.188372
275 1 0.565942 0.00182158 0.188588
504 1 0.621001 0.942474 0.184797
279 1 0.694108 0.00562078 0.189169
508 1 0.745994 0.939851 0.18723
512 1 0.868954 0.939485 0.185491
518 1 0.197711 0.0561775 0.255983
522 1 0.31502 0.0599549 0.253743
525 1 0.375028 0.995126 0.246157
529 1 0.494587 0.998756 0.251013
533 1 0.631752 0.997491 0.247286
534 1 0.691781 0.0636055 0.25354
537 1 0.754889 0.000729112 0.252063
513 1 0.989237 0.00188148 0.251814
514 1 0.0573213 0.0627503 0.256676
526 1 0.436769 0.0631891 0.254964
530 1 0.558157 0.0580688 0.248195
538 1 0.816579 0.0707392 0.255501
542 1 0.940928 0.0706412 0.254301
549 1 0.120609 0.122644 0.246518
553 1 0.250708 0.124801 0.247357
557 1 0.371804 0.124107 0.246297
561 1 0.501449 0.121571 0.250767
565 1 0.616078 0.121566 0.252572
569 1 0.750795 0.12313 0.261203
573 1 0.880615 0.136529 0.252429
545 1 0.00296297 0.135265 0.249493
546 1 0.0649404 0.197948 0.250893
550 1 0.188615 0.194154 0.251341
554 1 0.308405 0.186652 0.252874
558 1 0.434102 0.182342 0.250481
562 1 0.562415 0.190096 0.251453
566 1 0.678947 0.183487 0.254666
570 1 0.81553 0.187948 0.249983
574 1 0.9435 0.196199 0.246181
581 1 0.124752 0.253538 0.253543
585 1 0.256702 0.254439 0.25366
589 1 0.378467 0.249044 0.252529
593 1 0.501614 0.245072 0.240439
597 1 0.62438 0.253061 0.248906
601 1 0.743136 0.243266 0.242963
605 1 0.877338 0.251707 0.254397
577 1 0.00298779 0.253715 0.252069
578 1 0.0652084 0.319301 0.253978
582 1 0.192007 0.313051 0.244395
586 1 0.312492 0.314818 0.25355
590 1 0.437422 0.306087 0.249157
594 1 0.553297 0.313192 0.241647
598 1 0.687911 0.307736 0.252987
602 1 0.820874 0.320966 0.255163
606 1 0.937107 0.311056 0.24069
613 1 0.127993 0.377311 0.252482
617 1 0.253528 0.376171 0.254801
621 1 0.370079 0.373691 0.251582
625 1 0.495961 0.373374 0.254744
629 1 0.628564 0.369025 0.24574
633 1 0.749441 0.378637 0.25186
637 1 0.871161 0.387378 0.242383
609 1 0.996731 0.367083 0.245146
610 1 0.0562042 0.434728 0.253368
614 1 0.193749 0.436706 0.25357
618 1 0.304918 0.438268 0.259432
622 1 0.432466 0.426648 0.238529
626 1 0.564067 0.432157 0.250229
630 1 0.687698 0.439625 0.254316
634 1 0.808863 0.439154 0.245592
638 1 0.939836 0.438375 0.253145
645 1 0.117908 0.499117 0.247397
649 1 0.249334 0.502778 0.251786
653 1 0.371872 0.488088 0.243801
657 1 0.503717 0.504296 0.246726
661 1 0.622939 0.493243 0.259262
665 1 0.749068 0.50152 0.24742
669 1 0.865112 0.49506 0.250296
641 1 0.00244913 0.503166 0.249424
642 1 0.057965 0.564593 0.246313
646 1 0.18695 0.565966 0.247316
650 1 0.320853 0.568965 0.249635
654 1 0.441946 0.552168 0.24839
658 1 0.56989 0.562551 0.249702
662 1 0.686569 0.562908 0.246765
666 1 0.806409 0.557679 0.245924
670 1 0.942084 0.566343 0.248131
677 1 0.122743 0.623336 0.2432
681 1 0.256351 0.624102 0.245595
685 1 0.383083 0.627551 0.250345
689 1 0.498343 0.627151 0.2452
693 1 0.631844 0.626473 0.240613
697 1 0.741904 0.626027 0.249497
701 1 0.882885 0.625869 0.251272
673 1 0.997758 0.632614 0.252575
674 1 0.0611214 0.692653 0.254303
678 1 0.187231 0.682662 0.254205
682 1 0.307176 0.688105 0.251954
686 1 0.439924 0.690332 0.255867
690 1 0.558679 0.683097 0.249097
694 1 0.690921 0.687873 0.24248
698 1 0.814836 0.688346 0.252945
702 1 0.938956 0.696434 0.255556
705 1 0.00950402 0.757104 0.25108
709 1 0.136468 0.749863 0.258042
713 1 0.247012 0.744222 0.257248
717 1 0.37294 0.746853 0.256202
721 1 0.498387 0.757437 0.248571
725 1 0.628697 0.746507 0.23967
729 1 0.756738 0.750967 0.252486
733 1 0.869476 0.754803 0.247517
706 1 0.0639066 0.821854 0.241687
710 1 0.196976 0.811489 0.250506
714 1 0.313149 0.804421 0.258971
718 1 0.430099 0.804491 0.257543
722 1 0.565339 0.813221 0.241373
726 1 0.688711 0.806467 0.250649
730 1 0.806725 0.820468 0.247518
734 1 0.935196 0.809065 0.252942
741 1 0.132251 0.877165 0.259368
745 1 0.251468 0.874928 0.252257
749 1 0.373377 0.873341 0.256531
753 1 0.497695 0.865798 0.258863
757 1 0.621644 0.87744 0.250331
761 1 0.745105 0.876023 0.24719
765 1 0.874221 0.880268 0.247825
737 1 0.997565 0.872506 0.25168
738 1 0.0632953 0.94272 0.247773
742 1 0.188111 0.940657 0.251843
754 1 0.562997 0.943261 0.24604
762 1 0.818645 0.946288 0.250868
766 1 0.934484 0.937721 0.253022
517 1 0.123519 0.999371 0.252297
521 1 0.248455 0.998901 0.249583
746 1 0.308644 0.936214 0.247734
750 1 0.433666 0.941208 0.248142
758 1 0.685247 0.932857 0.248332
541 1 0.874627 0.0125839 0.249358
516 1 0.00270306 0.0611149 0.318204
520 1 0.130949 0.0556727 0.308496
523 1 0.316304 0.00291429 0.313891
532 1 0.497833 0.0605516 0.320159
535 1 0.687417 0.00971733 0.31429
524 1 0.251351 0.0611855 0.313084
528 1 0.378864 0.0556228 0.315986
536 1 0.629847 0.0664363 0.316726
540 1 0.749659 0.0628001 0.330183
544 1 0.87702 0.0579636 0.315142
547 1 0.0645325 0.13505 0.307088
551 1 0.189264 0.127679 0.302995
555 1 0.325141 0.115073 0.309956
559 1 0.433248 0.12807 0.310536
563 1 0.565442 0.119377 0.315133
567 1 0.686355 0.128203 0.319238
571 1 0.817867 0.129084 0.31962
575 1 0.939756 0.121667 0.322239
552 1 0.129534 0.19333 0.310949
556 1 0.249517 0.187143 0.314998
560 1 0.377116 0.19375 0.315703
564 1 0.507825 0.183618 0.31272
568 1 0.624103 0.187225 0.325887
572 1 0.761246 0.191428 0.310674
576 1 0.884785 0.189795 0.313012
548 1 0.00259751 0.196935 0.312345
579 1 0.0683872 0.257883 0.315527
583 1 0.184915 0.255418 0.313519
587 1 0.316907 0.251529 0.307654
591 1 0.441502 0.247464 0.311697
595 1 0.569933 0.249491 0.317133
599 1 0.685527 0.243891 0.307466
603 1 0.820786 0.255804 0.317244
607 1 0.939494 0.250342 0.309861
580 1 0.0047876 0.312188 0.321681
584 1 0.127632 0.31966 0.314203
588 1 0.248849 0.314569 0.309981
592 1 0.376527 0.309442 0.313092
596 1 0.503818 0.308016 0.308675
600 1 0.628521 0.311851 0.31542
604 1 0.756567 0.302304 0.310244
608 1 0.880455 0.316583 0.313022
611 1 0.0566776 0.380533 0.316631
615 1 0.190159 0.372701 0.312804
619 1 0.309094 0.376967 0.311621
623 1 0.430691 0.372808 0.308516
627 1 0.564738 0.369364 0.312436
631 1 0.690167 0.376485 0.312266
635 1 0.820111 0.377919 0.312016
639 1 0.944314 0.371941 0.307493
616 1 0.122318 0.441397 0.314921
620 1 0.247925 0.438001 0.322301
624 1 0.372734 0.432382 0.310699
628 1 0.487258 0.432705 0.312164
632 1 0.625112 0.428695 0.3126
636 1 0.751579 0.43181 0.316097
640 1 0.877109 0.440119 0.315248
612 1 0.99598 0.442764 0.314448
643 1 0.0617048 0.497422 0.310812
647 1 0.197245 0.50212 0.318743
651 1 0.316439 0.507604 0.305896
655 1 0.435134 0.504293 0.307993
659 1 0.558297 0.490841 0.310148
663 1 0.692756 0.492244 0.318329
667 1 0.807041 0.495602 0.308301
671 1 0.941747 0.50696 0.307472
644 1 0.00230324 0.565867 0.310272
648 1 0.124065 0.557747 0.306133
652 1 0.256655 0.56863 0.313099
656 1 0.382525 0.567695 0.312332
660 1 0.508603 0.560306 0.311742
664 1 0.63233 0.556381 0.312793
668 1 0.745865 0.562365 0.310899
672 1 0.869205 0.55876 0.312344
675 1 0.0609978 0.625824 0.305232
679 1 0.191391 0.622851 0.314228
683 1 0.313076 0.62736 0.313375
687 1 0.441072 0.623402 0.313947
691 1 0.559417 0.621514 0.310839
695 1 0.690085 0.617196 0.311749
699 1 0.80684 0.619471 0.304773
703 1 0.940171 0.622119 0.312122
676 1 0.00622874 0.685435 0.311516
680 1 0.122239 0.683487 0.312251
684 1 0.250969 0.688875 0.318969
688 1 0.377167 0.678601 0.321728
692 1 0.500676 0.684506 0.315696
696 1 0.61774 0.685579 0.308486
700 1 0.743874 0.685015 0.307505
704 1 0.874695 0.681515 0.315471
707 1 0.0572165 0.755064 0.316233
711 1 0.192676 0.743474 0.321346
715 1 0.306363 0.749336 0.324462
719 1 0.440345 0.743405 0.318948
723 1 0.564017 0.751357 0.316334
727 1 0.676201 0.745375 0.311443
731 1 0.809789 0.748052 0.316687
735 1 0.932707 0.753356 0.32165
712 1 0.121511 0.812457 0.313061
716 1 0.25215 0.813335 0.313899
720 1 0.368651 0.815222 0.318829
724 1 0.489671 0.80962 0.322302
728 1 0.620161 0.812005 0.304574
732 1 0.742901 0.807174 0.316382
736 1 0.875944 0.814729 0.305716
708 1 0.994283 0.812177 0.315833
739 1 0.0616005 0.874502 0.304283
743 1 0.191047 0.878587 0.310805
747 1 0.309741 0.880476 0.31474
751 1 0.435554 0.871481 0.31597
755 1 0.558672 0.875286 0.311734
759 1 0.682055 0.868367 0.308912
763 1 0.806157 0.876118 0.307774
767 1 0.942206 0.876181 0.313118
744 1 0.129707 0.942961 0.310395
748 1 0.253269 0.940287 0.311009
752 1 0.376727 0.943641 0.316284
756 1 0.495622 0.940186 0.321839
760 1 0.623993 0.939167 0.30617
764 1 0.748994 0.938884 0.305773
740 1 1.00047 0.93924 0.306396
515 1 0.0602313 0.00149917 0.313867
519 1 0.194381 0.998877 0.318203
527 1 0.436801 0.998478 0.30974
531 1 0.561304 -0.000554949 0.307753
539 1 0.815234 0.994655 0.314715
768 1 0.874991 0.939763 0.313617
543 1 0.939004 0.00698834 0.309868
773 1 0.128733 0.999526 0.372958
777 1 0.248738 0.997564 0.379543
793 1 0.748062 0.993114 0.373707
797 1 0.876324 0.998754 0.373982
769 1 0.996448 0.991075 0.370736
801 1 0.00327511 0.126882 0.373407
770 1 0.0603239 0.0642376 0.377144
774 1 0.190624 0.0662966 0.375109
778 1 0.320298 0.0621839 0.379833
782 1 0.431201 0.0746544 0.38056
786 1 0.567821 0.0636422 0.377286
790 1 0.685453 0.0669666 0.379843
794 1 0.822629 0.0599448 0.37249
798 1 0.938345 0.0595513 0.381187
805 1 0.124516 0.126794 0.373298
809 1 0.25065 0.118602 0.378175
813 1 0.372979 0.136914 0.378237
817 1 0.507627 0.125579 0.377324
821 1 0.627878 0.124623 0.381922
825 1 0.751211 0.134736 0.374371
829 1 0.875177 0.123855 0.378827
802 1 0.0699771 0.188834 0.372383
806 1 0.190126 0.189057 0.376762
810 1 0.307945 0.184632 0.37451
814 1 0.446461 0.194941 0.376555
818 1 0.563027 0.189248 0.382479
822 1 0.68991 0.193653 0.375433
826 1 0.807498 0.194587 0.375621
830 1 0.939122 0.192197 0.371804
833 1 0.998885 0.251176 0.380571
837 1 0.128986 0.253908 0.376645
841 1 0.252977 0.246349 0.373304
845 1 0.368372 0.247578 0.385794
849 1 0.504399 0.249022 0.366304
853 1 0.625631 0.256759 0.382002
857 1 0.748845 0.253266 0.378352
861 1 0.878707 0.249499 0.371164
834 1 0.0656017 0.317074 0.38291
838 1 0.193636 0.308674 0.374507
842 1 0.310051 0.306126 0.368092
846 1 0.445037 0.306204 0.375585
850 1 0.566268 0.310399 0.376264
854 1 0.6868 0.31755 0.375581
858 1 0.81676 0.312517 0.378436
862 1 0.939766 0.31206 0.371728
865 1 0.999016 0.376787 0.382379
869 1 0.127612 0.370961 0.375944
873 1 0.253501 0.372343 0.375205
877 1 0.370335 0.369207 0.376367
881 1 0.500078 0.368876 0.368035
885 1 0.625867 0.372441 0.37467
889 1 0.74717 0.37818 0.375794
893 1 0.881831 0.375399 0.374749
866 1 0.0562849 0.442717 0.377886
870 1 0.181019 0.437842 0.375094
874 1 0.307935 0.442241 0.382837
878 1 0.435445 0.432793 0.373197
882 1 0.562074 0.42956 0.379383
886 1 0.679401 0.432451 0.374005
890 1 0.815063 0.425921 0.37741
894 1 0.940094 0.440909 0.374708
897 1 0.00246045 0.505492 0.370194
901 1 0.128901 0.503241 0.370067
905 1 0.252433 0.504648 0.377569
909 1 0.382602 0.49306 0.375408
913 1 0.497803 0.498788 0.371382
917 1 0.619202 0.492338 0.367022
921 1 0.750588 0.496014 0.377599
925 1 0.880669 0.49765 0.3742
898 1 0.0674867 0.563394 0.369184
902 1 0.187046 0.568821 0.373965
906 1 0.313473 0.560846 0.370027
910 1 0.434439 0.560657 0.377829
914 1 0.57059 0.558033 0.369807
918 1 0.690005 0.560302 0.373298
922 1 0.805497 0.564733 0.368272
926 1 0.938176 0.561631 0.371116
933 1 0.124824 0.617916 0.372811
937 1 0.250297 0.632394 0.38499
941 1 0.374136 0.616694 0.382805
945 1 0.499771 0.615588 0.374366
949 1 0.619954 0.627538 0.370572
953 1 0.750815 0.630277 0.37241
957 1 0.869121 0.622065 0.377234
929 1 0.00639031 0.618736 0.37439
930 1 0.0623577 0.684622 0.376851
934 1 0.184025 0.682505 0.38199
938 1 0.311808 0.687314 0.381183
942 1 0.438253 0.678187 0.377992
946 1 0.557971 0.687441 0.377644
950 1 0.677396 0.687117 0.368569
954 1 0.816491 0.685238 0.382928
958 1 0.936703 0.686206 0.375667
961 1 0.00484357 0.747369 0.380497
965 1 0.125566 0.74002 0.375581
969 1 0.246147 0.752639 0.382569
973 1 0.373992 0.748917 0.38114
977 1 0.497534 0.749142 0.376273
981 1 0.620338 0.747484 0.378573
985 1 0.739583 0.741679 0.372648
989 1 0.866757 0.754332 0.378484
962 1 0.0583847 0.813895 0.377563
966 1 0.176508 0.803379 0.374705
970 1 0.318906 0.813296 0.383923
974 1 0.432378 0.808156 0.380884
978 1 0.553586 0.818718 0.380826
982 1 0.679013 0.813227 0.36798
986 1 0.81106 0.81999 0.371112
990 1 0.934886 0.815955 0.377311
993 1 0.00432362 0.881029 0.370014
997 1 0.121231 0.872497 0.367191
1001 1 0.250551 0.869011 0.375826
1005 1 0.376846 0.874366 0.376829
1009 1 0.492599 0.879269 0.382079
1013 1 0.629123 0.880135 0.370093
1017 1 0.741831 0.872456 0.362501
1021 1 0.867781 0.878018 0.378634
994 1 0.0628491 0.938673 0.366196
1002 1 0.313731 0.945879 0.371724
1006 1 0.434417 0.937258 0.371805
1010 1 0.56667 0.949141 0.374105
1018 1 0.803188 0.927825 0.369422
1022 1 0.936323 0.932097 0.376896
998 1 0.18587 0.935574 0.370836
781 1 0.379934 0.99778 0.376874
785 1 0.50479 0.00255256 0.377726
789 1 0.628526 0.00675543 0.374543
1014 1 0.685306 0.939892 0.36729
775 1 0.18569 1.00113 0.436305
779 1 0.309845 0.000831681 0.439124
787 1 0.573008 -0.000665473 0.437724
791 1 0.68107 -0.00153868 0.439767
795 1 0.814318 0.996313 0.426718
772 1 0.999453 0.0478386 0.431925
776 1 0.123009 0.0590119 0.434193
780 1 0.248849 0.0581365 0.439756
784 1 0.375857 0.0610093 0.445153
788 1 0.507593 0.0622364 0.43235
792 1 0.62919 0.0615937 0.438235
796 1 0.759669 0.0578755 0.425161
800 1 0.868446 0.0604633 0.435648
803 1 0.0659001 0.126328 0.430724
807 1 0.189228 0.127373 0.433741
811 1 0.302117 0.124929 0.437978
815 1 0.432596 0.135535 0.442506
819 1 0.566019 0.127627 0.438716
823 1 0.690899 0.121168 0.436483
827 1 0.810228 0.131154 0.430138
831 1 0.930091 0.124194 0.439461
804 1 0.0011422 0.18698 0.433643
808 1 0.123646 0.190881 0.43309
812 1 0.248814 0.186713 0.439067
816 1 0.371023 0.191109 0.452912
820 1 0.503592 0.18741 0.441455
824 1 0.631998 0.184819 0.434501
828 1 0.749318 0.190938 0.438153
832 1 0.867247 0.185948 0.431715
835 1 0.0682524 0.251925 0.436161
839 1 0.186984 0.25059 0.434985
843 1 0.306448 0.249165 0.438462
847 1 0.431372 0.248708 0.441957
851 1 0.568193 0.248595 0.439707
855 1 0.686661 0.251626 0.438699
859 1 0.816534 0.252967 0.436939
863 1 0.93401 0.246684 0.43503
836 1 0.996657 0.316172 0.440199
840 1 0.125375 0.309535 0.437657
844 1 0.249916 0.314593 0.43842
848 1 0.366455 0.312736 0.436138
852 1 0.506441 0.304589 0.429542
856 1 0.631424 0.312044 0.4459
860 1 0.753369 0.31398 0.433222
864 1 0.876883 0.309018 0.433564
867 1 0.0721385 0.372572 0.441149
871 1 0.187627 0.370766 0.430701
875 1 0.311994 0.376923 0.43915
879 1 0.427416 0.372698 0.436336
883 1 0.568611 0.368225 0.43748
887 1 0.686256 0.374656 0.439771
891 1 0.813115 0.372127 0.441677
895 1 0.937796 0.372617 0.43603
872 1 0.129735 0.43856 0.441642
876 1 0.245724 0.433008 0.438402
880 1 0.374363 0.446417 0.447417
884 1 0.501523 0.435119 0.435779
888 1 0.625271 0.430652 0.4356
892 1 0.759921 0.437137 0.442831
896 1 0.874181 0.436665 0.432688
868 1 0.996838 0.435532 0.437126
899 1 0.0687583 0.499237 0.436025
903 1 0.19498 0.499744 0.443158
907 1 0.317882 0.508813 0.447408
911 1 0.441044 0.49633 0.435832
915 1 0.557912 0.495767 0.433039
919 1 0.686536 0.496166 0.437642
923 1 0.812963 0.493251 0.429021
927 1 0.940108 0.504013 0.436136
900 1 0.00799819 0.559708 0.439801
904 1 0.127824 0.559601 0.435276