ITEM: TIMESTEP
100000
ITEM: NUMBER OF ATOMS
2048
ITEM: BOX BOUNDS pp pp pp
0.0000000000000000e+00 1.1143528949178609e+01
0.0000000000000000e+00 1.1143528949178609e+01
0.0000000000000000e+00 1.1143528949178609e+01
ITEM: ATOMS id type xs ys zs
18 1 0.562316 0.0642449 1.00243
21 1 0.625751 1.00116 0.996898
22 1 0.684587 0.0639777 0.000308359
6 1 0.186869 0.0651723 -0.0010357
10 1 0.310971 0.061898 -0.00171637
26 1 0.813629 0.0592214 0.991523
30 1 0.940159 0.0645172 -0.00125064
37 1 0.126151 0.124986 0.00246225
41 1 0.248678 0.128228 0.000708316
49 1 0.501 0.122842 0.00315186
53 1 0.62787 0.124863 0.0020262
57 1 0.754707 0.130933 1.00122
63 1 0.938911 0.122941 0.063703
33 1 0.00251877 0.125707 0.00150856
38 1 0.189066 0.18867 0.00177963
42 1 0.311311 0.190779 0.997288
46 1 0.436502 0.188401 0.00303624
54 1 0.689638 0.188098 0.00242492
58 1 0.813507 0.191062 0.997762
64 1 0.88165 0.189882 0.0643979
62 1 0.942749 0.188007 1.00072
75 1 0.315974 0.249998 0.0624952
83 1 0.568295 0.25021 0.0607201
89 1 0.751656 0.251112 0.00289923
70 1 0.187759 0.315932 0.996596
76 1 0.251333 0.313055 0.0634582
84 1 0.503783 0.315084 0.0637879
90 1 0.810825 0.314086 0.998008
94 1 0.936813 0.315588 0.00186047
97 1 0.00101 0.373183 0.000131863
109 1 0.373727 0.370008 0.00562245
117 1 0.627241 0.375737 0.00129785
98 1 0.0629356 0.436592 0.00254418
106 1 0.309318 0.437649 0.00260829
110 1 0.440511 0.438581 0.00255816
122 1 0.814002 0.436054 0.99914
128 1 0.874474 0.441107 0.0606333
126 1 0.937745 0.435654 0.993574
131 1 0.0634037 0.497763 0.062971
141 1 0.373843 0.501265 0.000487056
145 1 0.501941 0.500082 0.99826
153 1 0.751458 0.502948 0.996918
129 1 1.0029 0.496193 1.00445
130 1 0.0627795 0.556948 -0.000110898
134 1 0.185891 0.559713 1.00218
140 1 0.250171 0.56253 0.0648172
144 1 0.37753 0.564719 0.0634284
142 1 0.437938 0.561985 0.00100071
150 1 0.686722 0.564312 0.998388
158 1 0.941285 0.560979 0.998757
163 1 0.0588318 0.621132 0.065154
171 1 0.306217 0.623979 0.061202
189 1 0.871654 0.62694 0.995249
161 1 0.997905 0.625779 1.00172
172 1 0.251957 0.684777 0.0642479
174 1 0.431886 0.687481 0.993764
178 1 0.562093 0.691602 0.00144586
184 1 0.628788 0.690808 0.0588287
188 1 0.753136 0.685038 0.0600438
209 1 0.498152 0.753234 1.0028
223 1 0.937587 0.750706 0.0575522
200 1 0.128657 0.815717 0.0610469
202 1 0.312575 0.815234 0.998256
206 1 0.435069 0.815979 0.997643
210 1 0.560444 0.813719 1.00025
218 1 0.81582 0.813579 0.996144
237 1 0.373685 0.878597 0.999252
245 1 0.622923 0.876482 -0.00370399
255 1 0.936689 0.877291 0.0643395
228 1 0.00377234 0.935569 0.0631257
238 1 0.438211 0.940106 0.998933
242 1 0.561625 0.936777 0.999567
246 1 0.692916 0.938009 0.00285537
254 1 0.936885 0.9424 0.999581
5 1 0.123689 0.00230533 0.994643
9 1 0.243901 0.00225259 1.00265
13 1 0.375111 0.00165982 -0.0012633
17 1 0.504429 0.00113136 0.00251615
25 1 0.747515 0.00465808 0.995379
3 1 0.0645828 0.998249 0.0666488
7 1 0.18573 0.996091 0.0678124
11 1 0.312822 0.00544341 0.0622371
24 1 0.625932 0.0641519 0.0646286
27 1 0.81129 0.00282054 0.0576299
4 1 0.00614615 0.0653089 0.0616443
8 1 0.127979 0.0588667 0.0634445
12 1 0.245105 0.0611253 0.0609801
16 1 0.377043 0.0647151 0.0605777
20 1 0.498211 0.0583934 0.0637803
28 1 0.753205 0.0690536 0.0653886
32 1 0.874508 0.0648039 0.0610715
35 1 0.0647527 0.123251 0.0633012
39 1 0.18627 0.127588 0.0640554
43 1 0.313423 0.120909 0.0587926
47 1 0.438385 0.122017 0.0650227
51 1 0.56302 0.125521 0.0641452
55 1 0.688388 0.124262 0.0636134
59 1 0.815235 0.129159 0.062715
36 1 0.998879 0.187093 0.0652472
40 1 0.126514 0.190514 0.0618932
44 1 0.259337 0.18587 0.0610078
48 1 0.376306 0.185633 0.0635718
52 1 0.503682 0.185526 0.06207
56 1 0.624516 0.18328 0.0659489
60 1 0.751642 0.185087 0.0631463
67 1 0.0590985 0.254088 0.0626081
71 1 0.187796 0.248467 0.0650641
79 1 0.436328 0.248017 0.0635413
87 1 0.686239 0.249959 0.0664835
91 1 0.813245 0.254868 0.0623227
95 1 0.9418 0.254998 0.0641405
72 1 0.125349 0.311586 0.0655584
80 1 0.378272 0.309362 0.0666658
88 1 0.624477 0.314986 0.0632408
92 1 0.753381 0.31371 0.0636318
96 1 0.87486 0.314085 0.0627161
68 1 1.00021 0.319265 0.0626197
99 1 0.0624213 0.375121 0.0667568
103 1 0.18865 0.375675 0.0607419
107 1 0.314261 0.376172 0.0693136
111 1 0.439711 0.37294 0.0609179
115 1 0.566442 0.376154 0.0610756
119 1 0.690457 0.375925 0.0620479
123 1 0.816082 0.374294 0.065001
127 1 0.935255 0.378442 0.0597131
104 1 0.124825 0.43429 0.0638799
108 1 0.249269 0.435186 0.0655071
112 1 0.37461 0.438999 0.06452
116 1 0.506236 0.441112 0.0646996
120 1 0.62438 0.440109 0.0637326
124 1 0.753677 0.437156 0.0614765
100 1 0.997135 0.437579 0.0626884
135 1 0.184413 0.501231 0.0599814
139 1 0.314531 0.502849 0.0659779
143 1 0.439198 0.49957 0.0632676
147 1 0.564986 0.505554 0.0631751
151 1 0.690289 0.49966 0.0553799
155 1 0.811978 0.497949 0.0602775
159 1 0.940776 0.501707 0.063301
136 1 0.126437 0.565433 0.0606211
148 1 0.501844 0.561617 0.0650877
152 1 0.63108 0.562203 0.0622433
156 1 0.753041 0.563956 0.0561442
160 1 0.874224 0.564937 0.0627131
132 1 -0.00104878 0.558647 0.0659634
167 1 0.187274 0.62637 0.0590083
175 1 0.434879 0.627767 0.0563776
179 1 0.565475 0.624651 0.0612009
183 1 0.688784 0.633007 0.0612652
187 1 0.813805 0.626806 0.0632015
191 1 0.933242 0.625468 0.0604184
164 1 -0.00212139 0.686225 0.060727
168 1 0.121731 0.685031 0.0618073
176 1 0.376525 0.688721 0.0628901
180 1 0.500305 0.687148 0.0606088
192 1 0.873246 0.688697 0.0543942
195 1 0.0602886 0.753218 0.0588619
199 1 0.1878 0.754155 0.0613613
203 1 0.312692 0.747384 0.0623639
207 1 0.437213 0.746254 0.0629595
211 1 0.559345 0.752117 0.063948
215 1 0.688219 0.752173 0.0617783
219 1 0.812443 0.755681 0.0602393
204 1 0.256166 0.814285 0.063806
208 1 0.371194 0.816215 0.0568322
212 1 0.498021 0.81156 0.0644171
216 1 0.62363 0.815414 0.0601492
220 1 0.746967 0.813482 0.0581009
224 1 0.876877 0.815136 0.0599922
196 1 0.998754 0.80838 0.0599359
227 1 0.061378 0.874123 0.0615812
231 1 0.193309 0.874765 0.0639475
235 1 0.309914 0.879253 0.0598288
239 1 0.438291 0.873331 0.0618671
243 1 0.560797 0.873999 0.0625357
247 1 0.686342 0.875329 0.0587502
251 1 0.810043 0.873545 0.0642308
232 1 0.126658 0.935072 0.0626122
236 1 0.249005 0.937016 0.0625856
240 1 0.376442 0.938408 0.0607611
244 1 0.502001 0.940071 0.0615715
248 1 0.625405 0.934661 0.0611118
252 1 0.751825 0.938388 0.0621052
256 1 0.87784 0.94174 0.0653746
15 1 0.433489 -0.000280238 0.0652985
19 1 0.564909 0.00153581 0.0588886
23 1 0.691703 0.00129577 0.0674669
31 1 0.940082 0.997737 0.0598766
262 1 0.187457 0.0628086 0.126382
269 1 0.372998 -5.08621e-05 0.122831
270 1 0.436298 0.0616914 0.122023
274 1 0.565098 0.0562034 0.125085
278 1 0.690798 0.0647785 0.122294
258 1 0.0635417 0.0636651 0.128121
266 1 0.316349 0.0614336 0.126079
282 1 0.814457 0.0587176 0.126546
286 1 0.939729 0.0624252 0.120545
293 1 0.124429 0.125022 0.123978
297 1 0.24924 0.11819 0.126566
301 1 0.372568 0.126495 0.121528
305 1 0.50015 0.12658 0.125574
309 1 0.625825 0.121565 0.129074
313 1 0.754974 0.124058 0.126401
317 1 0.874525 0.128444 0.125416
289 1 -0.000443517 0.123737 0.126543
290 1 0.062174 0.186477 0.119917
294 1 0.186788 0.183092 0.126243
298 1 0.311106 0.185765 0.127634
302 1 0.436102 0.184709 0.126128
306 1 0.563889 0.184796 0.128019
310 1 0.691652 0.180451 0.125802
314 1 0.814444 0.193734 0.123904
318 1 0.94049 0.190469 0.124714
325 1 0.125924 0.247046 0.128145
329 1 0.24719 0.249431 0.128549
333 1 0.372147 0.244708 0.127116
337 1 0.501219 0.247463 0.12002
341 1 0.625419 0.251107 0.126512
345 1 0.747562 0.248926 0.123156
349 1 0.875998 0.251265 0.123822
321 1 0.999471 0.253854 0.127424
322 1 0.0629872 0.315969 0.126754
326 1 0.18714 0.312958 0.123353
330 1 0.314544 0.313084 0.128268
334 1 0.436539 0.308175 0.121699
338 1 0.563462 0.314013 0.126074
342 1 0.688921 0.313898 0.121549
346 1 0.811555 0.312736 0.127054
350 1 0.930469 0.32111 0.123124
353 1 -0.00141045 0.376297 0.123102
357 1 0.124838 0.374752 0.127909
361 1 0.24882 0.375939 0.125421
365 1 0.378043 0.375925 0.123781
369 1 0.497267 0.375449 0.1265
373 1 0.627089 0.378794 0.123608
377 1 0.752826 0.376633 0.125357
381 1 0.871924 0.381062 0.125701
354 1 0.0638275 0.434953 0.126821
358 1 0.188704 0.435989 0.125166
362 1 0.311475 0.438886 0.128959
366 1 0.437926 0.438015 0.125237
370 1 0.566987 0.441416 0.126474
374 1 0.689007 0.436066 0.123485
378 1 0.809613 0.439066 0.125461
382 1 0.940991 0.438638 0.122233
385 1 -0.00046092 0.496422 0.123251
389 1 0.121295 0.501089 0.125792
393 1 0.246967 0.502836 0.12467
397 1 0.379713 0.503118 0.127561
401 1 0.503101 0.500693 0.128501
405 1 0.627238 0.498763 0.125163
409 1 0.74636 0.500202 0.120396
413 1 0.879357 0.501555 0.125927
386 1 0.0610697 0.559248 0.122684
390 1 0.185977 0.56412 0.123199
394 1 0.315327 0.564253 0.127428
398 1 0.437728 0.568978 0.127731
402 1 0.569424 0.560314 0.126622
406 1 0.689698 0.565216 0.122737
410 1 0.810679 0.564177 0.127935
414 1 0.93836 0.561434 0.130273
417 1 -0.00139816 0.622939 0.12423
421 1 0.126303 0.622211 0.124412
425 1 0.251567 0.624926 0.125225
429 1 0.37503 0.628574 0.121181
433 1 0.505766 0.626765 0.123586
437 1 0.628983 0.628736 0.128157
441 1 0.750618 0.626509 0.121478
445 1 0.872672 0.626425 0.123215
418 1 0.0633652 0.686755 0.124835
422 1 0.186344 0.685124 0.120939
426 1 0.312383 0.688527 0.130623
430 1 0.441269 0.68581 0.124582
434 1 0.563252 0.687319 0.122038
438 1 0.690169 0.692746 0.125922
442 1 0.812831 0.689888 0.124429
446 1 0.938643 0.687682 0.12205
453 1 0.122945 0.751762 0.121882
457 1 0.247941 0.751805 0.124104
461 1 0.372125 0.749556 0.122499
465 1 0.499898 0.751566 0.124621
469 1 0.625782 0.748288 0.124701
473 1 0.748392 0.751931 0.121523
477 1 0.875069 0.749047 0.11694
449 1 0.00459204 0.748302 0.12382
450 1 0.0643692 0.812425 0.120518
454 1 0.189618 0.812268 0.12876
458 1 0.311565 0.810961 0.129818
462 1 0.432543 0.809159 0.122124
466 1 0.562598 0.812652 0.12713
470 1 0.686214 0.814967 0.124241
474 1 0.816054 0.812754 0.124232
478 1 0.93277 0.808764 0.125336
485 1 0.125803 0.875588 0.127827
489 1 0.252568 0.877961 0.128831
493 1 0.370769 0.875042 0.121134
497 1 0.500303 0.873939 0.12525
501 1 0.622258 0.87631 0.125592
505 1 0.750825 0.870834 0.123203
509 1 0.873403 0.877719 0.119412
481 1 -0.00181574 0.869346 0.124729
482 1 0.0650359 0.931356 0.123488
486 1 0.187511 0.935874 0.128229
490 1 0.312655 0.937792 0.125184
494 1 0.438547 0.93573 0.125216
498 1 0.56219 0.943403 0.122108
502 1 0.688766 0.939295 0.125692
506 1 0.811946 0.935941 0.120699
510 1 0.939698 0.93684 0.126136
257 1 1.0001 0.997779 0.124499
261 1 0.122411 0.996011 0.126465
265 1 0.252522 0.00503826 0.127996
273 1 0.49989 0.997779 0.126726
277 1 0.627815 0.998539 0.124518
281 1 0.752044 0.00260402 0.125124
285 1 0.877908 1.00145 0.125338
263 1 0.187873 0.00308449 0.185093
267 1 0.313104 0.000954046 0.18908
260 1 1.00041 0.0620097 0.185052
264 1 0.1228 0.0664696 0.185786
268 1 0.248585 0.0614338 0.192181
272 1 0.378555 0.0629772 0.185807
276 1 0.498292 0.0607915 0.190073
280 1 0.62694 0.0625285 0.18683
284 1 0.752898 0.0631511 0.187057
288 1 0.881006 0.0610214 0.181485
291 1 0.062689 0.125021 0.18615
295 1 0.187713 0.123428 0.189898
299 1 0.313948 0.121852 0.186188
303 1 0.437425 0.124493 0.187614
307 1 0.562422 0.124059 0.185804
311 1 0.686057 0.122625 0.188447
315 1 0.814406 0.123941 0.190124
319 1 0.938459 0.128567 0.18382
296 1 0.125566 0.186522 0.186899
300 1 0.248871 0.187925 0.187186
304 1 0.371046 0.185642 0.188399
308 1 0.502134 0.189246 0.186988
312 1 0.627655 0.19043 0.186915
316 1 0.752361 0.185106 0.187011
320 1 0.877235 0.188023 0.190354
292 1 0.00206845 0.188981 0.187192
323 1 0.0660424 0.249503 0.187212
327 1 0.184226 0.254362 0.187837
331 1 0.310946 0.248527 0.189955
335 1 0.436922 0.248959 0.183006
339 1 0.559556 0.254348 0.189275
343 1 0.693855 0.250244 0.191003
347 1 0.81439 0.249041 0.189631
351 1 0.938871 0.254046 0.188892
328 1 0.122811 0.314519 0.19076
332 1 0.252224 0.311927 0.187446
336 1 0.381153 0.314045 0.183825
340 1 0.499648 0.314326 0.184242
344 1 0.623272 0.316546 0.187852
348 1 0.751989 0.313035 0.185504
352 1 0.872735 0.314729 0.187461
324 1 1.001 0.314079 0.188272
355 1 0.0604959 0.378568 0.187782
359 1 0.183889 0.374736 0.185791
363 1 0.313288 0.375804 0.186094
367 1 0.439026 0.37593 0.186336
371 1 0.562615 0.377376 0.187243
375 1 0.690605 0.374504 0.187984
379 1 0.812387 0.37835 0.188924
383 1 0.934903 0.378261 0.188736
356 1 0.996143 0.438434 0.192207
360 1 0.123048 0.440064 0.183381
364 1 0.249417 0.441285 0.186581
368 1 0.376138 0.437887 0.186859
372 1 0.501478 0.441161 0.185929
376 1 0.622217 0.43618 0.188666
380 1 0.744608 0.439287 0.18305
384 1 0.875795 0.44247 0.188459
387 1 0.0567204 0.501807 0.187086
391 1 0.184909 0.500985 0.186087
395 1 0.305681 0.503423 0.186499
399 1 0.439916 0.50331 0.189863
403 1 0.563243 0.49856 0.194158
407 1 0.685088 0.50331 0.186663
411 1 0.80948 0.500997 0.18378
415 1 0.941108 0.502493 0.190271
392 1 0.124053 0.558283 0.188214
396 1 0.248355 0.565877 0.186933
400 1 0.372966 0.561429 0.191096
404 1 0.503656 0.569613 0.189134
408 1 0.626314 0.564081 0.188945
412 1 0.751 0.562431 0.190422
416 1 0.875697 0.562622 0.189876
388 1 0.00103378 0.563537 0.190918
419 1 0.0661068 0.622782 0.187709
423 1 0.186393 0.625557 0.190917
427 1 0.31249 0.624891 0.192346
431 1 0.437223 0.627449 0.194544
435 1 0.56506 0.628959 0.187779
439 1 0.690442 0.622244 0.18574
443 1 0.813193 0.630287 0.184089
447 1 0.936315 0.628111 0.185667
424 1 0.126772 0.688943 0.179284
428 1 0.248496 0.687959 0.186437
432 1 0.378203 0.689742 0.189177
436 1 0.500933 0.688479 0.184738
440 1 0.627178 0.690211 0.188953
444 1 0.746252 0.691217 0.190242
448 1 0.870688 0.687585 0.189861
420 1 0.00155862 0.684531 0.185755
451 1 0.0633551 0.751359 0.184918
455 1 0.189277 0.748712 0.185788
459 1 0.314698 0.74569 0.190346
463 1 0.439959 0.748823 0.186537
467 1 0.56792 0.752108 0.190992
471 1 0.683399 0.753513 0.188305
475 1 0.812564 0.74804 0.19284
479 1 0.933944 0.744646 0.188386
452 1 0.999418 0.810615 0.184873
456 1 0.127399 0.816464 0.18792
460 1 0.252205 0.81222 0.189106
464 1 0.376546 0.815864 0.187977
468 1 0.499359 0.815696 0.192803
472 1 0.627944 0.817172 0.187198
476 1 0.751306 0.806892 0.182908
480 1 0.874625 0.808351 0.186714
483 1 0.0636001 0.867488 0.185565
487 1 0.188958 0.875202 0.191512
491 1 0.312589 0.877007 0.189308
495 1 0.438208 0.876748 0.181462
499 1 0.562874 0.873516 0.192881
503 1 0.687987 0.878394 0.186922
507 1 0.809601 0.876534 0.183633
511 1 0.933595 0.867124 0.181072
484 1 0.00216143 0.93804 0.180782
488 1 0.123918 0.934869 0.19003
492 1 0.251998 0.939259 0.189644
496 1 0.371986 0.939624 0.184777
500 1 0.501588 0.938213 0.189893
504 1 0.624935 0.937121 0.187831
508 1 0.750913 0.938072 0.188235
512 1 0.875989 0.933979 0.179379
259 1 0.0657612 -0.000148508 0.191208
271 1 0.435367 0.998258 0.185532
275 1 0.56349 0.000182886 0.188611
279 1 0.689904 -0.00102652 0.189283
283 1 0.813913 0.998271 0.186793
287 1 0.938979 -0.00298554 0.184917
513 1 0.00405227 1.00075 0.248062
517 1 0.12321 0.00302027 0.250801
521 1 0.249706 0.000500155 0.253446
525 1 0.376335 0.998463 0.252211
514 1 0.0622559 0.0647363 0.255189
518 1 0.185255 0.0624534 0.247977
522 1 0.315323 0.0618242 0.249766
526 1 0.433736 0.0642869 0.248768
530 1 0.562651 0.0651983 0.248105
534 1 0.690035 0.0638535 0.250625
538 1 0.810185 0.0611016 0.249943
542 1 0.936804 0.0619967 0.249857
549 1 0.122335 0.125989 0.249886
553 1 0.247647 0.124002 0.250868
557 1 0.372296 0.120061 0.2478
561 1 0.501159 0.121791 0.249251
565 1 0.617618 0.127639 0.250763
569 1 0.747238 0.125828 0.249866
573 1 0.874576 0.12671 0.25134
545 1 0.00362325 0.128023 0.250585
546 1 0.0617863 0.192838 0.252222
550 1 0.184969 0.183372 0.254308
554 1 0.311144 0.187074 0.251073
558 1 0.438686 0.187762 0.248323
562 1 0.564175 0.188579 0.2514
566 1 0.689353 0.186563 0.250397
570 1 0.810618 0.184297 0.253138
574 1 0.942064 0.186531 0.247887
581 1 0.127702 0.250307 0.255491
585 1 0.247544 0.24525 0.251532
589 1 0.374772 0.252617 0.248943
593 1 0.496531 0.25994 0.254661
597 1 0.62643 0.251095 0.249066
601 1 0.750872 0.25171 0.253249
605 1 0.878677 0.251037 0.247612
577 1 0.000817577 0.249233 0.248525
578 1 0.0627512 0.311906 0.247983
582 1 0.191638 0.315289 0.252391
586 1 0.312121 0.311129 0.249324
590 1 0.436682 0.315234 0.251583
594 1 0.563635 0.313995 0.251056
598 1 0.688014 0.314288 0.250499
602 1 0.812849 0.30993 0.247358
606 1 0.934224 0.315212 0.250048
613 1 0.122857 0.375268 0.249712
617 1 0.247021 0.375755 0.246674
621 1 0.374255 0.375308 0.249941
625 1 0.50066 0.376712 0.249494
629 1 0.627536 0.37514 0.248755
633 1 0.755695 0.375401 0.25044
637 1 0.874142 0.376603 0.251566
609 1 -0.000205068 0.375901 0.251683
610 1 0.0642021 0.440534 0.249207
614 1 0.18397 0.43786 0.250433
618 1 0.312957 0.440504 0.251042
622 1 0.438769 0.437247 0.251044
626 1 0.562877 0.437113 0.250939
630 1 0.689443 0.435693 0.250663
634 1 0.816507 0.441906 0.248368
638 1 0.939286 0.438813 0.255101
641 1 -0.00191055 0.501513 0.252226
645 1 0.127024 0.504095 0.252118
649 1 0.247662 0.502716 0.250154
653 1 0.371795 0.501641 0.250139
657 1 0.502147 0.501671 0.249419
661 1 0.628509 0.497215 0.247204
665 1 0.749999 0.499027 0.253801
669 1 0.879098 0.499871 0.247914
642 1 0.0641321 0.562186 0.250253
646 1 0.188482 0.563562 0.251704
650 1 0.313587 0.562139 0.251314
654 1 0.440908 0.567909 0.250166
658 1 0.563252 0.567514 0.248232
662 1 0.686187 0.565215 0.25142
666 1 0.813915 0.561488 0.247893
670 1 0.93816 0.566466 0.252744
673 1 0.00378547 0.627747 0.251315
677 1 0.125392 0.62523 0.2455
681 1 0.249782 0.623915 0.252764
685 1 0.372551 0.626283 0.251771
689 1 0.50523 0.633556 0.250884
693 1 0.623689 0.627333 0.250461
697 1 0.748351 0.628721 0.25052
701 1 0.874275 0.63068 0.255794
674 1 0.0641675 0.689416 0.242444
678 1 0.186341 0.686167 0.247776
682 1 0.309136 0.689238 0.252085
686 1 0.436881 0.691109 0.251606
690 1 0.566084 0.691912 0.254304
694 1 0.686182 0.691517 0.256361
698 1 0.805581 0.685507 0.252225
702 1 0.94195 0.687903 0.253139
709 1 0.125535 0.751812 0.243643
713 1 0.253743 0.752131 0.250265
717 1 0.373546 0.748254 0.252554
721 1 0.505894 0.750437 0.245972
725 1 0.62945 0.75284 0.252569
729 1 0.745424 0.751948 0.247888
733 1 0.875521 0.744905 0.253665
705 1 0.00164746 0.74983 0.24799
706 1 0.0593333 0.812178 0.249973
710 1 0.189292 0.810634 0.249272
714 1 0.312987 0.810467 0.247295
718 1 0.442996 0.81457 0.252605
722 1 0.563726 0.81157 0.255884
726 1 0.691429 0.816624 0.25092
730 1 0.815099 0.813293 0.24383
734 1 0.934942 0.811962 0.250687
737 1 0.998114 0.874006 0.248885
741 1 0.12398 0.873572 0.248896
745 1 0.248624 0.878337 0.253386
749 1 0.373871 0.872474 0.251288
753 1 0.504039 0.873069 0.255406
757 1 0.622548 0.872178 0.257438
761 1 0.753738 0.874989 0.245349
765 1 0.874774 0.875472 0.25245
738 1 0.0613084 0.931846 0.249862
742 1 0.187973 0.940028 0.249133
746 1 0.313143 0.939606 0.253051
750 1 0.432421 0.933512 0.247672
754 1 0.561475 0.936435 0.248536
758 1 0.688756 0.938258 0.247506
762 1 0.813857 0.936059 0.252334
766 1 0.937408 0.934917 0.248666
529 1 0.494187 0.998433 0.249527
533 1 0.625206 0.00300611 0.247928
537 1 0.75033 0.99773 0.249255
541 1 0.87782 0.998177 0.251406
515 1 0.0644504 0.999851 0.314362
519 1 0.185775 1.00259 0.309814
528 1 0.376584 0.0635783 0.313197
527 1 0.437906 0.998777 0.312212
536 1 0.622335 0.0610438 0.310649
535 1 0.687525 0.000772182 0.311043
516 1 1.00273 0.065042 0.310566
520 1 0.124032 0.0605839 0.315487
524 1 0.251389 0.0630053 0.312547
532 1 0.494732 0.0626871 0.313243
540 1 0.74972 0.0623549 0.309528
544 1 0.875022 0.0651219 0.310867
547 1 0.0612367 0.127789 0.312035
551 1 0.186839 0.123834 0.315355
555 1 0.315684 0.123186 0.312986
559 1 0.434299 0.126941 0.310056
563 1 0.560988 0.122617 0.311103
567 1 0.684775 0.126677 0.311976
571 1 0.81019 0.12675 0.315313
575 1 0.93979 0.125564 0.310799
552 1 0.120763 0.182123 0.316458
556 1 0.251754 0.18691 0.315574
560 1 0.371938 0.186866 0.310087
564 1 0.498617 0.192087 0.307142
568 1 0.623579 0.187797 0.310504
572 1 0.749849 0.186728 0.312565
576 1 0.875926 0.192819 0.31106
548 1 -0.00169374 0.191404 0.3119
579 1 0.064186 0.254627 0.308493
583 1 0.190303 0.249051 0.31712
587 1 0.31088 0.24861 0.310506
591 1 0.432369 0.253632 0.31007
595 1 0.560069 0.253497 0.30992
599 1 0.688405 0.250759 0.311897
603 1 0.814703 0.250671 0.312838
607 1 0.941082 0.250764 0.306094
584 1 0.126758 0.315421 0.316406
588 1 0.249248 0.313964 0.310621
592 1 0.371059 0.315148 0.311431
596 1 0.500423 0.322535 0.312584
600 1 0.624076 0.314024 0.314545
604 1 0.750484 0.310731 0.311546
608 1 0.874924 0.312284 0.315661
580 1 0.0011757 0.308129 0.315103
611 1 0.0598436 0.382256 0.311954
615 1 0.18846 0.379498 0.311117
619 1 0.312969 0.380548 0.310495
623 1 0.435675 0.377567 0.311565
627 1 0.564282 0.378568 0.313257
631 1 0.692305 0.374988 0.316907
635 1 0.814326 0.376964 0.316938
639 1 0.939694 0.373183 0.314174
616 1 0.124295 0.434662 0.311572
620 1 0.250052 0.44296 0.312598
624 1 0.379912 0.441228 0.311554
628 1 0.5016 0.437873 0.309386
632 1 0.626278 0.438256 0.311553
636 1 0.748081 0.439478 0.313337
640 1 0.878413 0.436563 0.313038
612 1 1.0002 0.437758 0.314108
643 1 0.0583625 0.50241 0.315145
647 1 0.188732 0.504426 0.314493
651 1 0.311131 0.506627 0.313949
655 1 0.438995 0.500599 0.306222
659 1 0.567345 0.500942 0.313114
663 1 0.687415 0.500089 0.311791
667 1 0.814408 0.504444 0.316693
671 1 0.937672 0.502786 0.313307
648 1 0.12695 0.565954 0.314672
652 1 0.250135 0.564816 0.31709
656 1 0.376638 0.564727 0.311636
660 1 0.497791 0.5647 0.306828
664 1 0.625716 0.561494 0.307761
668 1 0.749846 0.56101 0.313228
672 1 0.87209 0.562765 0.309256
644 1 0.99829 0.565999 0.312246
675 1 0.0628258 0.625857 0.311628
679 1 0.184232 0.626591 0.307147
683 1 0.312152 0.626985 0.317928
687 1 0.437001 0.627749 0.318154
691 1 0.565877 0.626609 0.316131
695 1 0.690252 0.623847 0.314807
699 1 0.809982 0.629912 0.318181
703 1 0.938115 0.625396 0.316039
676 1 0.00768157 0.692601 0.31126
680 1 0.120225 0.692408 0.308502
684 1 0.245468 0.686294 0.308
688 1 0.375581 0.689061 0.313133
692 1 0.501609 0.689395 0.319501
696 1 0.626149 0.689135 0.313532
700 1 0.750459 0.693736 0.316983
704 1 0.876025 0.689896 0.316823
707 1 0.0648639 0.754172 0.309919
711 1 0.183532 0.751224 0.31263
715 1 0.30707 0.747126 0.313135
719 1 0.433035 0.753216 0.313112
723 1 0.565493 0.751404 0.319131
727 1 0.684705 0.748426 0.319709
731 1 0.813416 0.751691 0.31569
735 1 0.938311 0.752312 0.314266
712 1 0.126252 0.814809 0.30912
716 1 0.246764 0.809783 0.308882
720 1 0.371814 0.813735 0.312791
724 1 0.501481 0.807515 0.313465
728 1 0.622138 0.813387 0.315967
732 1 0.751 0.813261 0.314225
736 1 0.871783 0.813105 0.314224
708 1 0.0020073 0.810525 0.313383
739 1 0.0631093 0.873586 0.31397
743 1 0.184764 0.881089 0.317046
747 1 0.308505 0.872685 0.313207
751 1 0.43668 0.871931 0.316938
755 1 0.567053 0.876816 0.315692
759 1 0.689046 0.877449 0.314909
763 1 0.812819 0.873918 0.313177
767 1 0.936845 0.875084 0.315574
740 1 0.998938 0.93758 0.311701
744 1 0.125096 0.937824 0.308574
748 1 0.250264 0.941305 0.31233
752 1 0.374492 0.934259 0.312507
756 1 0.499491 0.936137 0.310837
760 1 0.624212 0.944566 0.311871
764 1 0.74979 0.938198 0.309269
768 1 0.875129 0.933561 0.314703
523 1 0.31511 -0.000598635 0.314696
531 1 0.560757 -0.00262559 0.307133
539 1 0.814532 0.99874 0.312435
543 1 0.939748 0.00207395 0.309706
778 1 0.312993 0.0649706 0.374052
781 1 0.374617 0.996057 0.375316
786 1 0.563618 0.0587623 0.371603
793 1 0.745878 0.00164986 0.375708
797 1 0.873483 1.00199 0.37092
770 1 0.0589063 0.0600627 0.377696
774 1 0.186966 0.0642341 0.373585
782 1 0.438309 0.0619409 0.373293
790 1 0.684132 0.0652588 0.375936
794 1 0.810907 0.059842 0.370646
798 1 0.934682 0.0605571 0.368523
805 1 0.123528 0.120439 0.377753
809 1 0.249743 0.126157 0.375007
813 1 0.375001 0.126856 0.373902
817 1 0.500743 0.125494 0.36958
821 1 0.620894 0.124582 0.373124
825 1 0.748136 0.127653 0.372152
829 1 0.875833 0.125706 0.372179
801 1 0.995543 0.125107 0.371609
802 1 0.0583135 0.184339 0.376214
806 1 0.185797 0.182315 0.37535
810 1 0.314453 0.188515 0.374308
814 1 0.434115 0.19159 0.369953
818 1 0.559751 0.189671 0.373831
822 1 0.689025 0.189712 0.377107
826 1 0.816438 0.189993 0.371885
830 1 0.939404 0.190351 0.374977
837 1 0.124947 0.244594 0.371609
841 1 0.256511 0.252313 0.382097
845 1 0.370145 0.25225 0.370054
849 1 0.496295 0.254131 0.371185
853 1 0.620067 0.255507 0.369538
857 1 0.749362 0.250892 0.375535
861 1 0.877583 0.250141 0.379331
833 1 0.00647058 0.249628 0.381796
834 1 0.0621718 0.314749 0.370922
838 1 0.190792 0.31255 0.375797
842 1 0.30796 0.318555 0.370833
846 1 0.436509 0.315951 0.37332
850 1 0.557877 0.315982 0.370028
854 1 0.684936 0.311643 0.374488
858 1 0.815607 0.308772 0.376507
862 1 0.938359 0.310017 0.370801
865 1 0.998821 0.376923 0.373988
869 1 0.127146 0.37569 0.375264
873 1 0.246665 0.379702 0.376606
877 1 0.373602 0.376801 0.374585
881 1 0.4997 0.380856 0.377769
885 1 0.621815 0.376776 0.375215
889 1 0.754102 0.368654 0.375874
893 1 0.87541 0.372742 0.373753
866 1 0.064695 0.436044 0.376665
870 1 0.186543 0.441695 0.373434
874 1 0.317082 0.441151 0.370113
878 1 0.44257 0.437974 0.374985
882 1 0.561522 0.440061 0.375585
886 1 0.689317 0.434548 0.373258
890 1 0.816284 0.438688 0.375708
894 1 0.940885 0.437474 0.373192
901 1 0.119999 0.502691 0.378614
905 1 0.250931 0.501069 0.377145
909 1 0.376188 0.504358 0.373813
913 1 0.499586 0.50165 0.369469
917 1 0.629778 0.501337 0.374611
921 1 0.747808 0.498483 0.375138
925 1 0.878364 0.503352 0.374274
897 1 0.997268 0.503999 0.376335
898 1 0.0591489 0.565263 0.379262
902 1 0.182704 0.563213 0.375557
906 1 0.314048 0.563421 0.37357
910 1 0.436546 0.563148 0.374782
914 1 0.559943 0.560634 0.371141
918 1 0.689477 0.561631 0.37451
922 1 0.810043 0.561719 0.375895
926 1 0.934533 0.566911 0.379092
933 1 0.120829 0.624722 0.375608
937 1 0.252207 0.627561 0.373673
941 1 0.374825 0.621126 0.374855
945 1 0.499619 0.622061 0.378461
949 1 0.626427 0.625138 0.378214
953 1 0.74971 0.623209 0.380299
957 1 0.871503 0.623398 0.377925
929 1 0.997105 0.627322 0.378041
930 1 0.0642392 0.689128 0.377268
934 1 0.186204 0.686036 0.371935
938 1 0.31127 0.688374 0.376018
942 1 0.436335 0.686637 0.379495
946 1 0.565325 0.685086 0.377403
950 1 0.685668 0.687951 0.376911
954 1 0.807148 0.687015 0.380276
958 1 0.938038 0.689679 0.379216
961 1 -0.00231389 0.74647 0.377045
965 1 0.119381 0.752629 0.375047
969 1 0.241451 0.751709 0.374807
973 1 0.375642 0.745468 0.375168
977 1 0.49898 0.750563 0.380347
981 1 0.620403 0.749565 0.378358
985 1 0.750145 0.752743 0.379687
989 1 0.870623 0.749267 0.379501
962 1 0.0596426 0.814477 0.377898
966 1 0.183056 0.816016 0.368744
970 1 0.308372 0.811173 0.373802
974 1 0.435753 0.810249 0.37629
978 1 0.558286 0.814771 0.381718
982 1 0.682925 0.810375 0.376574
986 1 0.810234 0.813136 0.378498
990 1 0.934356 0.812601 0.375486
997 1 0.122932 0.873305 0.377158
1001 1 0.250367 0.874167 0.376045
1005 1 0.370203 0.870836 0.379209
1009 1 0.499761 0.873768 0.372786
1013 1 0.625842 0.876262 0.378699
1017 1 0.750702 0.876326 0.373244
1021 1 0.870762 0.871866 0.37787
993 1 0.999405 0.872932 0.378864
994 1 0.0610703 0.938987 0.37363
998 1 0.186877 0.937885 0.382949
1002 1 0.315521 0.938172 0.374585
1006 1 0.437206 0.933238 0.375804
1010 1 0.563098 0.936615 0.376268
1014 1 0.688584 0.938326 0.377162
1018 1 0.810875 0.9364 0.375581
1022 1 0.93878 0.940142 0.374515
773 1 0.125723 -0.00034748 0.377022
777 1 0.251507 0.998581 0.377442
785 1 0.498794 0.994256 0.370033
789 1 0.623282 1.00092 0.374332
769 1 0.995402 1.00023 0.376899
775 1 0.189608 1.00027 0.441161
787 1 0.560042 0.00247726 0.437977
776 1 0.12865 0.0601861 0.442988
780 1 0.246614 0.0587753 0.437867
784 1 0.376828 0.0611055 0.432619
788 1 0.499899 0.0614851 0.431402
792 1 0.624351 0.0663456 0.438931
796 1 0.749726 0.0614239 0.436577
800 1 0.875683 0.0632519 0.431986
772 1 0.000801308 0.060832 0.439704
803 1 0.0651842 0.116805 0.441077
807 1 0.190935 0.123882 0.437621
811 1 0.309785 0.123877 0.438262
815 1 0.437038 0.128393 0.43549
819 1 0.559547 0.126313 0.430792
823 1 0.686005 0.126097 0.431616
827 1 0.811464 0.129228 0.431664
831 1 0.938494 0.119378 0.434763
808 1 0.124696 0.18729 0.43757
812 1 0.252497 0.193669 0.438598
816 1 0.372594 0.186424 0.43766
820 1 0.49646 0.188685 0.430764
824 1 0.622683 0.190118 0.434176
828 1 0.752478 0.187248 0.437739
832 1 0.878842 0.188483 0.433421
804 1 0.00318289 0.183782 0.439675
835 1 0.066446 0.247779 0.440984
839 1 0.183401 0.247634 0.432101
843 1 0.313563 0.248264 0.443089
847 1 0.435523 0.246554 0.434553
851 1 0.558507 0.250073 0.440047
855 1 0.685086 0.249056 0.435852
859 1 0.813363 0.248855 0.439152
863 1 0.942428 0.250926 0.437341
836 1 -0.000740955 0.314021 0.436734
840 1 0.125855 0.313098 0.431086
844 1 0.250698 0.314045 0.43748
848 1 0.370832 0.312032 0.436816
852 1 0.495755 0.311089 0.435664
856 1 0.62263 0.312869 0.433464
860 1 0.749553 0.310467 0.439257
864 1 0.876795 0.310825 0.440545
867 1 0.064718 0.372066 0.438733
871 1 0.187416 0.375842 0.439296
875 1 0.311524 0.377595 0.430995
879 1 0.43141 0.379912 0.438667
883 1 0.557834 0.376252 0.439232
887 1 0.686623 0.37264 0.436707
891 1 0.817731 0.374647 0.435573
895 1 0.939458 0.371969 0.437234
872 1 0.126766 0.43677 0.435861
876 1 0.255438 0.440108 0.437924
880 1 0.376654 0.439912 0.430826
884 1 0.497233 0.442338 0.444923
888 1 0.619733 0.44161 0.432385
892 1 0.752186 0.430712 0.429976
896 1 0.878084 0.437143 0.438928
868 1 -0.00118989 0.439801 0.435005
899 1 0.0610939 0.498986 0.438785
903 1 0.187413 0.500666 0.436244
907 1 0.310572 0.501483 0.436879
911 1 0.439445 0.50298 0.436866
915 1 0.559781 0.500996 0.436297
919 1 0.689512 0.496278 0.434416
923 1 0.812252 0.495485 0.438912
927 1 0.935216 0.50094 0.437543
904 1 0.127155 0.566658 0.440058
908 1 0.248819 0.565613 0.43568
912 1 0.372935 0.561422 0.4388
916 1 0.499789 0.562449 0.436643