ITEM: TIMESTEP
100000
ITEM: NUMBER OF ATOMS
2048
ITEM: BOX BOUNDS pp pp pp
0.0000000000000000e+00 1.3679807573413575e+01
0.0000000000000000e+00 1.3679807573413575e+01
0.0000000000000000e+00 1.3679807573413575e+01
ITEM: ATOMS id type xs ys zs
350 1 0.0383793 0.677928 0.93648
111 1 0.396626 0.0241611 0.189769
782 1 0.308856 0.0635662 0.027294
711 1 0.753834 0.0278447 0.0256107
604 1 0.43605 0.304068 0.10806
648 1 0.703701 0.0195524 0.0997983
1621 1 0.94023 0.0379359 0.801253
1283 1 0.385041 0.198307 0.0910444
1485 1 0.508072 0.202404 0.0413328
453 1 0.495198 0.0643874 0.87575
1050 1 0.664013 0.190868 0.0381347
1310 1 0.176799 0.998006 0.869614
1848 1 0.247102 0.0879131 0.120718
31 1 0.638239 0.258983 0.135385
1828 1 0.944132 0.126621 0.0737878
1217 1 0.147235 0.405078 0.924525
516 1 0.235843 0.305015 0.932129
1912 1 0.48929 0.275794 0.0280125
1756 1 0.921031 0.349041 0.123219
2028 1 0.935578 0.388923 0.05795
951 1 0.207881 0.169553 0.0258036
1160 1 0.00483726 0.0203447 0.761858
1958 1 0.438871 0.132006 0.125387
2033 1 0.712066 0.384618 0.977904
1993 1 0.888163 0.201038 0.986044
1119 1 0.938421 0.336626 0.842327
188 1 0.240105 0.392392 0.17956
368 1 0.543046 0.256068 0.982881
1701 1 0.825978 0.153255 1.00045
7 1 0.0189105 0.405188 0.18739
513 1 0.560676 0.277575 0.728462
1759 1 0.872681 0.446427 0.0431897
1224 1 0.780421 0.275351 0.99162
610 1 0.138449 0.23705 0.108865
72 1 0.197816 0.409784 0.0859107
1956 1 0.494273 0.60759 0.0210697
1494 1 0.354166 0.445853 0.0261372
1018 1 0.862585 0.211779 0.138125
227 1 0.981043 0.31155 0.0710063
307 1 0.383017 0.269277 0.956675
1067 1 0.297051 0.30899 0.984763
1419 1 0.538083 0.430598 0.0857292
1442 1 0.431207 0.559348 0.046827
781 1 0.925396 0.454183 0.232925
2037 1 0.83554 0.315261 0.922976
738 1 0.0959054 0.621207 0.0065204
1954 1 0.317634 0.404049 0.913562
1317 1 0.307015 0.494499 0.811349
1866 1 0.464659 0.643977 0.168868
1055 1 0.86041 0.432964 0.911522
765 1 0.224827 0.387047 0.907557
238 1 0.131208 0.410714 0.854348
1172 1 0.66644 0.572582 0.100432
1013 1 0.475005 0.57759 0.960489
1861 1 0.674344 0.665004 0.00752057
1592 1 0.717525 0.8689 0.920478
539 1 0.956832 0.58936 0.928254
103 1 0.279951 0.434886 0.843777
907 1 0.269364 0.81936 0.134709
2034 1 0.423874 0.678818 0.956009
850 1 0.699727 0.518757 0.0411745
20 1 0.774834 0.608369 0.930315
652 1 0.851895 0.754293 0.959758
1890 1 0.31234 0.723407 0.981216
1880 1 0.340761 0.716144 0.730526
1318 1 0.704306 0.690908 0.903451
2008 1 0.5577 0.749137 0.155754
398 1 0.778749 0.843369 0.0873949
237 1 0.654938 0.538934 0.191267
369 1 0.127925 0.541271 0.974205
702 1 0.238782 0.886054 0.971832
193 1 0.446445 0.887223 0.115547
712 1 0.693544 0.713336 0.152261
1664 1 0.369142 0.796794 0.138521
414 1 0.747117 0.0909623 0.122738
597 1 0.997899 0.0383118 0.96027
917 1 0.0384106 0.949784 0.956664
1166 1 0.159587 0.888389 0.96727
849 1 0.428743 0.925775 0.194813
138 1 0.73772 0.783817 0.0430656
1034 1 0.308017 0.990497 0.924996
1341 1 0.25797 0.0054226 0.862019
659 1 0.0861413 0.898095 0.967798
401 1 0.623721 0.158225 0.876605
967 1 0.00874889 0.0564032 0.879509
812 1 0.0326293 0.990283 0.894075
1361 1 0.515889 0.888314 0.139878
1586 1 0.455679 0.233031 0.0912673
1626 1 0.633241 0.128432 0.0114204
2012 1 0.890338 0.715237 0.0595849
1987 1 0.968169 0.0456469 0.254535
1436 1 0.976831 0.0623416 0.138458
1935 1 0.222003 0.0671173 0.970408
1100 1 0.335621 0.784706 0.804539
133 1 0.897676 0.918507 0.12472
1769 1 0.827439 0.826177 0.133588
157 1 0.0696884 0.0498199 0.80045
219 1 0.474622 0.284387 0.23236
1520 1 0.330699 0.202129 0.164756
1588 1 0.978323 0.974325 0.259224
1910 1 0.0256124 0.902991 0.159841
373 1 0.299983 0.139204 0.136235
1795 1 0.138286 0.428247 0.0230825
1649 1 0.618491 0.142705 0.0785446
1742 1 0.754799 0.981967 0.279215
1489 1 0.379017 0.032784 0.0389519
435 1 0.529494 0.17823 0.275012
1788 1 0.533303 0.391722 0.0189722
139 1 0.854078 0.269872 0.0149825
1879 1 0.0662523 0.0524667 0.336777
201 1 0.95132 0.122385 0.251938
879 1 0.220838 0.128046 0.935473
1164 1 0.402804 0.122485 0.0127459
935 1 0.890869 0.269558 0.923837
328 1 0.17847 0.0836831 0.0958826
405 1 0.165526 0.147816 0.132482
220 1 0.321488 0.995871 0.0636247
1983 1 0.820237 0.235332 0.224375
364 1 0.744342 0.2577 0.226445
439 1 0.0979425 0.122614 0.138684
1934 1 0.224857 0.143621 0.0870184
599 1 0.499945 0.259294 0.784032
986 1 0.805227 0.313271 0.0537943
1219 1 0.933688 0.37201 0.218308
100 1 0.0559767 0.150826 0.00901921
173 1 0.290637 0.502821 0.293176
343 1 0.680337 0.458527 0.955816
222 1 0.442201 0.310259 0.957749
488 1 0.849602 0.339436 0.992505
1060 1 0.404918 0.255568 0.0432818
1385 1 0.690867 0.52531 0.250252
1896 1 0.771594 0.378445 0.0460543
1353 1 0.76334 0.189322 0.886107
1550 1 0.941623 0.427962 0.158172
1805 1 0.208158 0.623318 0.987188
613 1 0.0322828 0.215587 0.9933
462 1 0.590701 0.344191 0.0586615
1159 1 0.123668 0.569809 0.897848
1718 1 0.115588 0.307616 0.472608
529 1 0.623753 0.50925 0.96767
197 1 0.370018 0.930503 0.146121
912 1 0.0128097 0.440302 0.799679
795 1 0.154853 0.674068 0.96861
1564 1 0.292327 0.549321 0.0955044
1988 1 0.0582484 0.526056 0.180421
644 1 0.540038 0.499575 0.0498762
1690 1 0.712384 0.596792 0.158089
452 1 0.916983 0.790407 0.00304601
302 1 0.955291 0.881161 0.655659
187 1 0.274537 0.698553 0.14062
642 1 0.522464 0.460877 0.837497
67 1 0.381213 0.712678 0.0478312
293 1 0.894753 0.612956 0.0681708
1059 1 0.863757 0.638109 0.7417
457 1 0.0799258 0.703918 0.77495
1900 1 0.765095 0.681305 0.233161
590 1 0.628051 0.491242 0.0405472
168 1 0.715741 0.587135 0.0456756
1371 1 0.938763 0.606373 0.0043664
1179 1 0.932903 0.899994 0.027236
766 1 0.402869 0.793661 0.993513
323 1 0.315952 0.854369 0.0799359
1285 1 0.760636 0.655727 0.851204
1051 1 0.735717 0.552864 0.305527
86 1 0.0848522 0.757252 0.946638
1625 1 0.982406 0.591845 0.723852
941 1 0.290568 0.507001 0.918733
318 1 0.488693 0.764768 0.245125
1833 1 0.0415401 0.704787 0.227341
76 1 0.96484 0.791023 0.096075
1174 1 0.319786 0.784694 0.891797
389 1 0.609279 0.911565 0.195431
119 1 0.825213 0.634007 0.233662
522 1 0.1214 0.0848359 0.927945
1634 1 0.0849174 0.617618 0.935952
1078 1 0.326371 0.901458 0.203012
834 1 0.317381 0.746402 0.108278
1610 1 0.686319 0.996995 0.0129615
1191 1 0.876182 0.799062 0.0797893
1679 1 0.136588 0.818529 0.329599
1723 1 0.992604 0.010852 0.0829142
92 1 0.118941 0.830169 0.994862
1019 1 0.258928 0.71409 0.203155
446 1 0.562215 0.0786384 0.188538
591 1 0.695244 0.839272 0.0940647
192 1 0.579724 0.925321 0.908689
1862 1 0.264574 0.851297 0.907554
963 1 0.092701 0.841647 0.0827701
491 1 0.242002 0.856736 0.203179
434 1 0.839053 0.0124964 0.04915
728 1 0.826491 0.909912 0.138059
929 1 0.104818 0.994982 0.925467
18 1 0.0249679 0.808498 0.0492258
1314 1 0.195113 0.938181 0.24033
547 1 0.209224 0.979181 0.158329
1362 1 0.656851 0.984638 0.21968
1927 1 0.798793 0.979718 0.219806
1088 1 0.332668 0.770319 0.031242
1068 1 0.506733 0.148746 0.0845865
854 1 0.959049 0.133994 0.157243
977 1 0.157537 0.0681806 0.993041
1596 1 0.229661 0.0721577 0.830521
1631 1 0.235791 0.232512 0.0575995
455 1 0.207985 0.0412916 0.0419468
304 1 0.998309 0.225824 0.100484
1358 1 0.971169 0.507267 0.141667
482 1 0.211343 0.01901 0.225163
1408 1 0.108233 0.141767 0.0529884
436 1 0.506388 0.328415 0.985734
779 1 0.859375 0.0561479 0.140609
521 1 0.82985 0.118817 0.254885
896 1 0.90967 0.981708 0.0337962
1345 1 0.0586293 0.17145 0.101051
137 1 0.316418 0.283381 0.0496163
1446 1 0.582784 0.332647 0.143975
290 1 0.693112 0.209276 0.187853
1201 1 0.692064 0.0663969 0.161554
510 1 0.852146 0.179772 0.285789
815 1 0.988426 0.410806 0.86501
1072 1 0.0491437 0.273909 0.225677
1681 1 0.654309 0.168889 0.957019
527 1 0.836818 0.534181 0.171702
831 1 0.209274 0.396063 0.283799
791 1 0.408594 0.513782 0.280381
1917 1 0.449356 0.701776 0.356386
1177 1 0.997396 0.495935 0.312013
314 1 0.991964 0.310766 0.993194
650 1 0.891747 0.38321 0.291388
427 1 0.37011 0.420788 0.0942571
1959 1 0.18277 0.345384 0.135524
723 1 0.407829 0.733799 0.132891
52 1 0.650428 0.501181 0.1161
1460 1 0.520205 0.566816 0.192353
1340 1 0.557466 0.56851 0.987691
1259 1 0.899204 0.527368 0.0460391
1781 1 0.284218 0.449696 0.156222
423 1 0.297938 0.401731 0.986302
1416 1 0.186257 0.258994 0.98505
691 1 0.842341 0.503587 0.0889233
1474 1 0.507705 0.581737 0.11467
1920 1 0.815082 0.546242 0.936078
1906 1 0.0850733 0.450268 0.161078
1260 1 0.888509 0.485565 0.957031
487 1 0.568435 0.743888 0.240168
458 1 0.918589 0.454883 0.0990658
1488 1 0.665589 0.569022 0.99557
1255 1 0.507261 0.602657 0.251781
1831 1 0.438558 0.538808 0.208889
609 1 0.603127 0.611271 0.836218
792 1 0.152763 0.758197 0.976021
910 1 0.204213 0.536006 0.26908
1661 1 0.853877 0.526339 0.320073
1823 1 0.124474 0.640589 0.0751054
817 1 0.163462 0.647284 0.878789
1859 1 0.405487 0.861959 0.169683
901 1 0.442395 0.677604 0.268247
1991 1 0.694625 0.646855 0.203944
1541 1 0.749519 0.47476 0.0749461
1352 1 0.170694 0.839044 0.0606221
1094 1 0.024373 0.886271 0.93087
655 1 0.587175 0.637958 0.223217
646 1 0.874355 0.462835 0.187284
1169 1 0.992436 0.729832 0.0472105
1561 1 0.946936 0.917568 0.172808
1677 1 0.135666 0.709653 0.897244
780 1 0.211131 0.565914 0.0523219
28 1 0.942972 0.700613 0.106322
89 1 0.103648 0.969277 0.0960646
744 1 0.267068 0.72074 0.0597794
1143 1 0.71234 0.760226 0.304497
569 1 0.68059 0.923978 0.188302
821 1 0.0240683 0.874189 0.0102165
1715 1 0.830691 0.76865 0.799851
534 1 0.451029 0.991115 0.146115
477 1 0.0660893 0.852704 0.863952
1854 1 0.0499487 0.0145058 0.0168832
35 1 0.159659 0.922501 0.121351
1046 1 0.174417 0.847458 0.136849
1878 1 0.531634 0.960391 0.0706855
830 1 0.772815 0.759337 0.958814
1175 1 0.18818 0.88585 0.301233
1222 1 0.349559 0.949902 0.999374
726 1 0.481985 0.0422419 0.216404
938 1 0.542899 0.219406 0.213961
1098 1 0.909531 0.996742 0.288224
1532 1 0.0596628 0.971068 0.154348
339 1 0.522291 0.950759 0.175307
983 1 0.555719 0.175289 0.125336
633 1 0.728572 0.0758991 0.328009
747 1 0.582592 0.0227785 0.0410247
1466 1 0.918757 0.846074 0.122523
242 1 0.292773 0.908816 0.3685
1109 1 0.492347 0.254131 0.147988
454 1 0.336311 0.221017 0.246337
952 1 0.640335 0.178605 0.135551
1207 1 0.681192 0.953273 0.123735
1704 1 0.0462646 0.101477 0.259197
833 1 0.906452 0.0414278 0.075811
96 1 0.195774 0.000253791 0.971707
1870 1 0.0906164 0.143514 0.209395
1132 1 0.241191 0.222424 0.229534
1905 1 0.732457 0.00793621 0.215275
1128 1 0.782969 0.244961 0.150441
1239 1 0.978435 0.0610805 0.325316
1056 1 0.0143376 0.355455 0.124826
43 1 0.131486 0.959194 0.994179
186 1 0.495826 0.113093 0.161261
415 1 0.355839 0.139412 0.269407
1379 1 0.798608 0.165055 0.133044
1388 1 0.183388 0.234492 0.168794
1565 1 0.0162344 0.102182 0.0894437
1029 1 0.469268 0.355323 0.895659
1187 1 0.761001 0.124373 0.272835
1461 1 0.959514 0.426199 0.300136
1869 1 0.284339 0.24847 0.121163
285 1 0.474203 0.148121 0.499043
1343 1 0.620018 0.413743 0.044721
1136 1 0.667845 0.333384 0.131606
60 1 0.931168 0.207979 0.120358
813 1 0.813216 0.358995 0.107066
1668 1 0.051227 0.021405 0.250915
1155 1 0.115144 0.195874 0.164629
404 1 0.417707 0.192695 0.189191
887 1 0.643911 0.278334 0.0385496
1074 1 0.880684 0.286493 0.170964
2036 1 0.0790923 0.281983 0.414384
243 1 0.295772 0.411707 0.225549
1655 1 0.139729 0.205741 0.0476027
8 1 0.0905401 0.287697 0.0719345
1990 1 0.239807 0.302694 0.153182
1037 1 0.405515 0.330843 0.0365339
1302 1 0.602186 0.452782 0.113152
253 1 0.783657 0.403973 0.357147
1453 1 0.899975 0.312097 0.342749
1885 1 0.791999 0.465833 0.929522
915 1 0.0243232 0.567224 0.130325
1977 1 0.0451755 0.442575 0.0108454
1342 1 0.266465 0.472879 0.0678936
25 1 0.692389 0.561858 0.881043
1254 1 0.629874 0.667757 0.169301
1421 1 0.484681 0.736223 0.167253
1486 1 0.460889 0.399717 0.994836
136 1 0.777538 0.602891 0.000743427
624 1 0.759594 0.5434 0.107303
754 1 0.0725666 0.434991 0.234666
767 1 0.0976196 0.453068 0.0875084
183 1 0.195849 0.607207 0.222873
1951 1 0.432459 0.577028 0.397944
1118 1 0.775062 0.493183 0.337293
2041 1 0.0817716 0.38674 0.341562
1011 1 0.748503 0.567753 0.819337
889 1 0.0918155 0.646086 0.383438
1221 1 0.121206 0.566438 0.0567594
1533 1 0.582226 0.53566 0.176363
208 1 0.753811 0.629844 0.333067
1609 1 0.43149 0.765314 0.384858
359 1 0.704335 0.659126 0.274424
566 1 0.0246004 0.729526 0.983706
211 1 0.0183647 0.610712 0.957223
1386 1 0.0100864 0.60825 0.21518
374 1 0.0321671 0.642905 0.29128
200 1 0.132623 0.794255 0.121988
1775 1 0.955689 0.678611 0.0106249
943 1 0.327349 0.587417 0.20444
1873 1 0.426555 0.809747 0.229907
1122 1 0.491035 0.648467 0.960398
859 1 0.391161 0.836481 0.0720638
685 1 0.264958 0.933914 0.215587
234 1 0.874429 0.574134 0.251515
1933 1 0.237339 0.790299 0.945743
1456 1 0.583363 0.874119 0.389186
1842 1 0.607627 0.877085 0.121588
59 1 0.991737 0.747873 0.185125
498 1 0.130531 0.647179 0.267401
1500 1 0.987707 0.802885 0.980511
822 1 0.0687566 0.753557 0.0780847
1389 1 0.244395 0.0190938 0.100184
301 1 0.809308 0.777189 0.0731185
1124 1 0.989349 0.718566 0.273352
789 1 0.206733 0.794841 0.349263
135 1 0.890549 0.79723 0.195502
1698 1 0.108734 0.922012 0.905295
1955 1 0.134233 0.0888485 0.18921
1903 1 0.193328 0.972203 0.0541413
305 1 0.801055 0.946407 0.322573
286 1 0.701483 0.0924412 0.234294
1939 1 0.890825 0.807604 0.932063
930 1 0.874268 0.0688976 0.296132
741 1 0.430512 0.925464 0.367605
2020 1 0.88009 0.874445 0.182254
1909 1 0.863753 0.862485 0.00153037
1981 1 0.22045 0.090104 0.202431
950 1 0.336099 0.122892 0.398955
1107 1 0.206471 0.919344 0.83841
1157 1 0.274082 0.977688 0.317345
394 1 0.189087 0.823755 0.732527
693 1 0.191933 0.29208 0.223467
70 1 0.677672 0.137414 0.177097
199 1 0.0182696 0.0684356 0.19946
154 1 0.691452 0.00520466 0.284126
1043 1 0.610215 0.843689 0.249644
1730 1 0.0247462 0.430339 0.105503
1794 1 0.340916 0.0357524 0.264442
571 1 0.528676 0.290005 0.280656
1049 1 0.626462 0.981273 0.982535
289 1 0.762688 0.342772 0.254269
1277 1 0.315775 0.19602 0.0935915
311 1 0.725684 0.263861 0.081353
1932 1 0.179883 0.224386 0.387461
873 1 0.981676 0.274887 0.302664
204 1 0.145807 0.243967 0.45253
1249 1 0.294159 0.148257 0.323225
1630 1 0.414966 0.244648 0.258017
1783 1 0.489291 0.342433 0.0568037
2002 1 0.449139 0.361581 0.415124
1761 1 0.387348 0.356466 0.377188
549 1 0.438314 0.35907 0.18348
206 1 0.724621 0.399377 0.0965168
888 1 0.93664 0.38733 0.356013
770 1 0.904347 0.55193 0.123031
542 1 0.472155 0.43786 0.165576
1945 1 0.543211 0.316366 0.459842
1999 1 0.786764 0.19056 0.499702
999 1 0.786001 0.577273 0.213642
106 1 0.0188173 0.291285 0.161553
91 1 0.319294 0.383774 0.151316
421 1 0.378025 0.338479 0.153208
56 1 0.447405 0.500436 0.108066
1171 1 0.23877 0.372688 0.403084
811 1 0.241687 0.46061 0.219227
749 1 0.469179 0.475845 0.230693
1978 1 0.561338 0.494009 0.232685
1226 1 0.835094 0.435904 0.284413
757 1 0.844504 0.584133 0.0218666
737 1 0.00710988 0.390087 0.340579
9 1 0.370905 0.460488 0.238086
1084 1 0.373727 0.532584 0.402984
1632 1 0.397588 0.605547 0.177884
236 1 0.557956 0.625369 0.134295
1480 1 0.977037 0.341147 0.901079
1710 1 0.875815 0.578668 0.365133
495 1 0.0105193 0.73891 0.115357
1527 1 0.963261 0.650085 0.272288
387 1 0.155976 0.404253 0.347495
466 1 0.484504 0.449648 0.297764
1639 1 0.996681 0.652456 0.414639
658 1 0.0875869 0.53126 0.329426
567 1 0.595874 0.664093 0.0835295
1064 1 0.723244 0.46102 0.201708
1692 1 0.945736 0.522879 0.971605
1351 1 0.967527 0.556429 0.067076
1944 1 0.164482 0.59203 0.144544
1189 1 0.264641 0.615045 0.0366774
1841 1 0.907802 0.723343 0.187889
1096 1 0.811369 0.725204 0.0136115
1919 1 0.451757 0.743048 0.301278
565 1 0.708204 0.425088 0.374245
1571 1 0.803443 0.675027 0.298434
2009 1 0.128705 0.570875 0.246022
519 1 0.170075 0.700103 0.0467094
22 1 0.0396944 0.626086 0.0838105
515 1 0.112669 0.678703 0.203531
1112 1 0.195153 0.826184 0.986407
1777 1 0.196144 0.69517 0.232476
1573 1 0.255902 0.843223 0.351365
1552 1 0.196898 0.890264 0.389686
1210 1 0.462934 0.811356 0.114229
19 1 0.767925 0.624217 0.103828
241 1 0.126753 0.752549 0.250691
169 1 0.55048 0.0259148 0.136252
1 1 0.864129 0.597062 0.165255
1620 1 0.258933 0.620154 0.257751
147 1 0.00605533 0.855719 0.100583
486 1 0.782062 0.675333 0.948857
851 1 0.0160303 0.884718 0.323941
1495 1 0.0739895 0.902559 0.291828
184 1 0.274677 0.980184 0.991966
600 1 0.459229 0.19329 0.248636
278 1 0.384585 0.875564 0.00724727
1733 1 0.822679 0.969166 0.400892
730 1 0.0319218 0.135475 0.165508
847 1 0.157931 0.0122809 0.128003
27 1 0.354303 0.968107 0.284095
627 1 0.56689 0.83347 0.167859
819 1 0.841296 0.0656474 0.394745
1829 1 0.12066 1.0001 0.187002
417 1 0.586293 0.210093 0.0693384
926 1 0.462553 0.907048 0.451039
1142 1 0.116937 0.0682521 0.475105
1473 1 0.0840789 0.90318 0.0471838
1876 1 0.592401 0.173407 0.186862
1079 1 0.313341 0.981988 0.20905
1929 1 0.574139 0.0827691 0.485836
1039 1 0.574718 0.0655106 0.41073
674 1 0.798235 0.0210273 0.323676
714 1 0.122076 0.838679 0.182798
1012 1 0.110561 0.0712777 0.402513
1484 1 0.166922 0.0421962 0.355773
1812 1 0.17632 0.998819 0.412733
931 1 0.0431086 0.0173129 0.445434
2021 1 0.919649 0.051559 0.397277
1913 1 0.050718 0.188472 0.234203
753 1 0.174683 0.141252 0.382744
1604 1 0.342726 0.202169 0.331473
939 1 0.710156 0.250699 0.286093
856 1 0.724037 0.373936 0.308153
576 1 0.00181224 0.987126 0.331498
1640 1 0.875804 0.0692149 0.213475
1022 1 0.0920372 0.271461 0.174142
1483 1 0.238207 0.964904 0.408049
1129 1 0.334024 0.279238 0.309611
167 1 0.212507 0.141329 0.459958
750 1 0.866055 0.398295 0.160141
524 1 0.0515584 0.331673 0.367838
1764 1 0.115741 0.343805 0.276095
370 1 0.692335 0.296121 0.189035
1814 1 0.0787387 0.377729 0.161379
273 1 0.071096 0.420319 0.401886
319 1 0.397084 0.441826 0.307481
1629 1 0.370339 0.385891 0.220725
1918 1 0.535527 0.354081 0.388107
324 1 0.673068 0.389733 0.241065
957 1 0.979976 0.230568 0.24895
1357 1 0.780604 0.46478 0.145833
117 1 0.0945626 0.616736 0.3133
1996 1 0.137143 0.422336 0.257165
1916 1 0.652608 0.403137 0.132711
1685 1 0.761812 0.440397 0.294182
78 1 0.176624 0.344062 0.384956
1376 1 0.580232 0.47859 0.304255
1884 1 0.814097 0.497447 0.988747
367 1 0.906488 0.483434 0.373193
399 1 0.192365 0.463724 0.282283
1849 1 0.306586 0.492732 0.224375
321 1 0.429408 0.415785 0.251611
77 1 0.958797 0.595878 0.168694
1810 1 0.950894 0.563166 0.357545
1727 1 0.212733 0.498232 0.160523
1162 1 0.521433 0.628859 0.32341
1038 1 0.535472 0.685655 0.368652
400 1 0.72448 0.564934 0.373655
743 1 0.774882 0.676069 0.456858
185 1 0.590214 0.682549 0.298406
217 1 0.631683 0.468588 0.19799
1144 1 0.763324 0.758093 0.160949
1194 1 0.835382 0.743942 0.329374
480 1 0.0722963 0.626818 0.235479
1813 1 0.991841 0.787856 0.404602
598 1 0.0893734 0.533054 0.107229
1469 1 0.382927 0.706452 0.347865
230 1 0.26956 0.564496 0.163664
1943 1 0.827817 0.755684 0.197653
1545 1 0.0603583 0.943791 0.222119
1528 1 0.219461 0.670208 0.300747
1950 1 0.478348 0.854452 0.20918
965 1 0.847288 0.70184 0.246878
87 1 0.953618 0.542591 0.253083
881 1 0.91465 0.523076 0.193302
1086 1 0.0706869 0.782115 0.19769
1477 1 0.303224 0.648379 0.180894
1651 1 0.360172 0.779706 0.24772
1931 1 0.964935 0.81171 0.164651
511 1 0.0126516 0.669513 0.134562
1732 1 0.942362 0.937185 0.337567
246 1 0.239488 0.829457 0.0693456
543 1 0.715502 0.860768 0.179103
162 1 0.245477 0.912829 0.152231
1669 1 0.32932 0.842815 0.962007
1220 1 0.158855 0.742914 0.167652
471 1 0.505656 0.751112 0.377925
1644 1 0.259725 0.786233 0.204135
1063 1 0.710614 0.90901 0.0305541
254 1 0.627218 0.945338 0.270615
614 1 0.897563 0.904551 0.399553
1404 1 0.130687 0.78138 0.0402081
1134 1 0.0830227 0.729492 0.143287
991 1 0.291032 0.910976 0.450107
340 1 0.644142 0.923275 0.351466
1845 1 0.735087 0.910372 0.342104
300 1 0.0977245 0.890011 0.142007
1646 1 0.053245 0.862443 0.227738
1057 1 0.133237 0.913188 0.196419
1835 1 0.443659 0.908697 0.290571
1567 1 0.754289 0.937608 0.557881
1982 1 0.0081355 0.224291 0.446697
124 1 0.136581 0.140554 0.437255
867 1 0.0805045 0.981285 0.311273
660 1 0.23726 0.0989495 0.328208
751 1 0.756763 0.89282 0.244928
1725 1 0.185156 0.931099 0.447881
1182 1 0.0876013 0.193173 0.421384
900 1 0.152389 0.0422628 0.2751
1697 1 0.305502 0.102315 0.197504
697 1 0.422857 0.982453 0.24137
99 1 0.482045 0.0712232 0.480667
1792 1 0.473802 0.0550517 0.324502
1722 1 0.915903 0.0434851 0.995455
1036 1 0.0459653 0.153674 0.627506
1009 1 0.388571 0.14056 0.343751
1326 1 0.572086 0.966518 0.348434
1141 1 0.0290136 0.115942 0.325012
494 1 0.888028 0.157543 0.227024
1263 1 0.43771 0.114805 0.300744
916 1 0.930157 0.122988 0.320585
1090 1 0.126047 0.101326 0.310306
874 1 0.371679 0.190672 0.40726
925 1 0.416997 0.285943 0.174437
928 1 0.438216 0.178991 0.382455
376 1 0.608147 0.204332 0.29199
296 1 0.626504 0.246634 0.219259
1546 1 0.942498 0.271174 0.556113
885 1 0.671337 0.30969 0.252976
1966 1 0.635486 0.0768595 0.202082
1243 1 0.916262 0.190317 0.313866
845 1 0.87664 0.236901 0.353177
1330 1 0.959753 0.517197 0.430435
769 1 0.175241 0.36919 0.220844
13 1 0.98075 0.450365 0.377058
1280 1 0.200007 0.166624 0.276605
572 1 0.211498 0.197073 0.512282
440 1 0.313952 0.367952 0.366506
649 1 0.479479 0.440612 0.595122
1998 1 0.278988 0.363845 0.308961
1623 1 0.620219 0.206942 0.441287
42 1 0.8672 0.129243 0.380722
1969 1 0.855324 0.240881 0.503672
1225 1 0.0600643 0.496728 0.384257
1857 1 0.323245 0.276953 0.379328
891 1 0.394008 0.477651 0.160636
2027 1 0.657961 0.500624 0.407598
1033 1 0.208393 0.491535 0.0241639
1470 1 0.052705 0.757621 0.307773
32 1 0.921735 0.224178 0.41534
1510 1 0.1519 0.219349 0.307411
1492 1 0.263334 0.375303 0.105844
1914 1 0.809764 0.517307 0.259514
235 1 0.84925 0.306812 0.242492
1265 1 0.0880991 0.242303 0.530301
1140 1 0.859403 0.606247 0.429908
1170 1 0.149095 0.60409 0.367539
1054 1 0.521544 0.510884 0.131979
348 1 0.796011 0.564071 0.344144
1614 1 0.00214042 0.571997 0.423414
1336 1 0.897675 0.641534 0.298266
1737 1 0.743447 0.468763 0.433867
125 1 0.17264 0.489749 0.0974774
657 1 0.132586 0.477699 0.394434
1235 1 0.284864 0.508227 0.369353
1195 1 0.359279 0.704317 0.258509
579 1 0.659939 0.698904 0.4044
1295 1 0.501326 0.525463 0.28936
1886 1 0.591318 0.55394 0.244344
315 1 0.603977 0.666438 0.378525
1524 1 0.810237 0.737658 0.415829
178 1 0.637043 0.543772 0.470616
1796 1 0.944051 0.820272 0.366535
1516 1 0.0353361 0.55831 0.260097
2023 1 0.325639 0.693449 0.389641
1799 1 0.705122 0.510209 0.155807
68 1 0.877979 0.639759 0.48486
283 1 0.930598 0.299728 0.427707
353 1 0.244844 0.590506 0.400346
175 1 0.463745 0.726236 0.0711124
85 1 0.664214 0.795787 0.172224
1052 1 0.848439 0.951908 0.263037
409 1 0.976712 0.732123 0.579544
1501 1 0.792687 0.873765 0.321898
1543 1 0.911106 0.940351 0.23586
156 1 0.0976392 0.597971 0.174053
1062 1 0.420557 0.740357 0.205432
1503 1 0.523623 0.83056 0.347805
447 1 0.637516 0.767268 0.379198
1683 1 0.811228 0.677072 0.177792
448 1 0.862379 0.885169 0.319688
762 1 0.928672 0.912339 0.60043
433 1 0.903557 0.855935 0.249168
1458 1 0.322323 0.83545 0.387197
687 1 0.581083 0.838933 0.494638
827 1 0.657198 0.747469 0.0637597
814 1 0.982524 0.771955 0.329007
1755 1 0.0370214 0.817184 0.342621
1711 1 0.157207 0.877879 0.485067
34 1 0.284778 0.767804 0.267734
574 1 0.33931 0.987384 0.349918
788 1 0.784271 0.163061 0.21247
2038 1 0.0487068 0.837675 0.163252
1553 1 0.99397 0.999248 0.167029
1032 1 0.807786 0.836011 0.202136
1892 1 0.290072 0.0993674 0.267883
75 1 0.517668 0.0880718 0.369547
968 1 0.624652 0.0102134 0.329653
1724 1 0.47122 0.0573577 0.126523
489 1 0.38574 0.984338 0.404967
1713 1 0.623566 0.95672 0.521683
2042 1 0.203017 0.817374 0.465056
1258 1 0.209292 0.987326 0.492942
29 1 0.505396 0.887809 0.511446
432 1 0.0203234 0.375969 0.609827
1712 1 0.872537 0.990231 0.206275
1663 1 0.86394 0.0164525 0.460915
102 1 0.105869 0.991278 0.377364
1505 1 0.520289 0.0244679 0.434175
535 1 0.269397 0.0935974 0.418848
209 1 0.93982 0.156687 0.40037
130 1 0.0715246 0.152726 0.475344
144 1 0.192478 0.300058 0.615013
1324 1 0.392219 0.053788 0.358241
351 1 0.234996 0.03706 0.295933
1101 1 0.702775 0.927783 0.275001
145 1 0.851173 0.907331 0.526178
1901 1 0.030109 0.892594 0.461924
975 1 0.604062 0.0181759 0.25959
1479 1 0.478608 0.997728 0.277336
645 1 0.58352 0.951094 0.135676
704 1 0.809554 0.0946823 0.331971
1168 1 0.0705891 0.291118 0.293396
1135 1 0.268106 0.221263 0.304636
108 1 0.330219 0.101121 0.468247
128 1 0.685733 0.14066 0.302494
733 1 0.21374 0.0558707 0.508087
1875 1 0.588959 0.269654 0.408202
1298 1 0.994685 0.197221 0.177186
755 1 0.202106 0.549555 0.492566
1120 1 0.437781 0.339728 0.254172
358 1 0.597465 0.147154 0.251995
694 1 0.904105 0.274609 0.277037
1688 1 0.906804 0.491283 0.505742
1846 1 0.835384 0.430291 0.101521
1433 1 0.211811 0.279011 0.297513
1411 1 0.457338 0.26477 0.329606
695 1 0.554885 0.141406 0.340879
860 1 0.777893 0.586413 0.421553
1083 1 0.143027 0.250088 0.575911
1888 1 0.676359 0.453211 0.456089
902 1 0.869204 0.280611 0.441191
181 1 0.00255833 0.558816 0.501729
1327 1 0.194867 0.427724 0.41293
160 1 0.388989 0.36829 0.300005
1430 1 0.89935 0.464523 0.301501
1089 1 0.209239 0.354115 0.555337
1601 1 0.55018 0.351274 0.315859
379 1 0.800433 0.696404 0.525737
680 1 0.79736 0.537104 0.498209
1110 1 0.956149 0.26632 0.139694
1462 1 0.953037 0.289917 0.220225
1061 1 0.965148 0.667504 0.19711
1227 1 0.310362 0.574051 0.270451
605 1 0.157903 0.474664 0.213855
1278 1 0.653269 0.529986 0.3104
1272 1 0.516221 0.563248 0.347576
1952 1 0.666737 0.611369 0.340893
993 1 0.64449 0.745233 0.270991
360 1 0.80086 0.617082 0.502943
551 1 0.757025 0.716371 0.337562
1163 1 0.00186069 0.5866 0.581758
1279 1 0.0811974 0.714676 0.417199
1691 1 0.526943 0.684386 0.55284
706 1 0.81921 0.808313 0.275605
764 1 0.0630092 0.477161 0.294562
1156 1 0.333784 0.641975 0.33449
949 1 0.249683 0.60963 0.327506
1544 1 0.40941 0.689999 0.420875
1793 1 0.440787 0.574032 0.286809
54 1 0.972638 0.869518 0.228062
1602 1 0.322017 0.904394 0.516851
1268 1 0.625978 0.735795 0.193357
1507 1 0.418491 0.0526985 0.260669
681 1 0.600965 0.881003 0.309662
1962 1 0.728621 0.902629 0.624196
748 1 0.844558 0.816879 0.366389
630 1 0.140033 0.677789 0.33122
784 1 0.222693 0.754027 0.404602
922 1 0.390925 0.877171 0.331833
422 1 0.627601 0.61224 0.475284
1887 1 0.156339 0.762256 0.454216
587 1 0.412592 0.836063 0.388972
899 1 0.696774 0.851354 0.316673
981 1 0.757191 0.786729 0.360204
26 1 0.102727 0.924132 0.417856
857 1 0.423978 0.000922624 0.324834
962 1 0.323137 0.0747774 0.329801
176 1 0.300155 0.949844 0.120993
1006 1 0.356979 0.85055 0.473041
456 1 0.7836 0.24561 0.54813
670 1 0.388356 0.885781 0.252118
1921 1 0.489619 0.18394 0.15634
11 1 0.546429 0.0162378 0.302257
1205 1 0.513714 0.283685 0.374305
1307 1 0.485655 0.72246 0.598479
1538 1 0.318452 0.113311 0.590922
2016 1 0.525171 0.921386 0.247794
390 1 0.895714 0.166461 0.457029
146 1 0.915643 0.981231 0.391449
761 1 0.23358 0.180634 0.166746
1261 1 0.393216 0.0435365 0.478512
1579 1 0.637605 0.122447 0.363953
1744 1 0.00551728 0.0170767 0.610152
1684 1 0.0103144 0.335438 0.549594
1936 1 0.509261 0.374708 0.238012
1773 1 0.451374 0.0520614 0.393581
1767 1 0.488383 0.155714 0.329061
1455 1 0.92447 0.229124 0.191664
808 1 0.353648 0.256744 0.116063
1409 1 0.737088 0.952071 0.487997
778 1 0.233121 0.22874 0.698819
1305 1 0.987499 0.203136 0.317165
536 1 0.714567 0.00795821 0.355222
796 1 0.764267 -0.000786353 0.425372
1716 1 0.0131158 0.323415 0.459983
1672 1 0.393374 0.264533 0.378448
1525 1 0.571184 1.00075 0.198681
1776 1 0.69758 0.951821 0.397207
1584 1 0.701845 0.178292 0.248245
861 1 0.926831 0.344166 0.488535
1671 1 0.827013 0.332306 0.374697
1198 1 0.893158 0.328311 0.572569
557 1 0.0446336 0.343325 0.239093
1826 1 0.304726 0.268697 0.194157
883 1 0.594187 0.325037 0.256024
1986 1 0.534067 0.142346 0.219113
933 1 0.738617 0.202744 0.425616
869 1 0.585269 0.381134 0.431536
250 1 0.966088 0.292316 0.366765
1667 1 0.660182 0.242296 0.333813
1073 1 0.770308 0.107592 0.413901
431 1 0.269515 0.226873 0.393992
1687 1 0.570258 0.602691 0.402582
1082 1 0.611236 0.335073 0.351819
1686 1 0.715342 0.342821 0.467104
790 1 0.776855 0.416697 0.209605
1763 1 0.571509 0.517059 0.366721
990 1 0.763105 0.646877 0.560042
81 1 0.299074 0.590898 0.516646
853 1 0.590904 0.608597 0.30982
732 1 0.855722 0.430967 0.38674
1441 1 0.829121 0.628767 0.59901
418 1 0.266441 0.470689 0.534936
1021 1 0.548214 0.448473 0.169882
619 1 0.486776 0.764636 0.444082
1613 1 0.834789 0.557566 0.63185
63 1 0.756655 0.33712 0.394983
1736 1 0.327249 0.440702 0.314682
1308 1 0.288058 0.698878 0.287911
669 1 0.521522 0.72163 0.300237
377 1 0.213535 0.547868 0.346196
121 1 0.536831 0.449492 0.364625
1670 1 0.583278 0.775814 0.301765
325 1 0.703829 0.585517 0.438139
1240 1 0.289468 0.96876 0.52343
1817 1 0.930152 0.783539 0.258305
391 1 0.146728 0.83241 0.42584
994 1 0.332827 0.782 0.502076
202 1 0.330428 0.516465 0.146041
1183 1 0.372158 0.582993 0.322323
503 1 0.339604 0.837738 0.290288
1400 1 0.680788 0.687343 0.336452
365 1 0.861658 0.698426 0.446613
1027 1 0.459228 0.823481 0.299416
1907 1 0.24783 0.833638 0.274826
620 1 0.679919 0.0692183 0.575476
797 1 0.775917 0.0251388 0.591374
1229 1 0.566857 0.730858 0.430504
505 1 0.97111 0.831473 0.489248
473 1 0.312723 0.895549 0.274034
131 1 0.185213 0.956704 0.340066
65 1 0.352523 0.812546 0.565987
479 1 0.662106 0.0752263 0.288889
716 1 0.946153 0.876983 0.300664
104 1 0.874829 0.016897 0.343183
882 1 0.942742 0.707351 0.400322
1392 1 0.867637 0.944423 0.353371
1580 1 0.546873 0.813072 0.251546
1087 1 0.660636 0.983436 0.467287
696 1 0.114893 0.808716 0.502449
640 1 0.167009 0.944703 0.534403
61 1 0.397196 0.788933 0.460985
886 1 0.636161 0.833236 0.349056
1840 1 0.13276 0.872298 0.256976
1844 1 0.12859 0.948419 0.269284
291 1 0.491433 0.97748 0.346244
310 1 0.651613 0.905231 0.436897
870 1 0.112039 0.187374 0.645736
38 1 0.1843 0.140384 0.547138
1418 1 0.226651 0.176426 0.345359
872 1 0.473346 0.869455 0.391899
1008 1 0.449635 0.991102 0.48705
284 1 0.33837 0.295935 0.687379