ITEM: TIMESTEP
100000
ITEM: NUMBER OF ATOMS
2048
ITEM: BOX BOUNDS pp pp pp
0.0000000000000000e+00 1.1950412657485773e+01
0.0000000000000000e+00 1.1950412657485773e+01
0.0000000000000000e+00 1.1950412657485773e+01
ITEM: ATOMS id type xs ys zs
5 1 0.122228 0.00450008 0.987132
9 1 0.24986 0.000211505 0.00589504
29 1 0.87971 0.000579658 0.00916904
3 1 0.995141 0.994741 0.00190059
20 1 0.498368 0.0547356 0.0716174
18 1 0.561906 0.0680666 0.00764525
22 1 0.678514 0.0642594 0.991108
26 1 0.804738 0.0526817 0.992406
30 1 0.940584 0.0738332 0.989345
33 1 0.0097116 0.127028 0.999738
49 1 0.502294 0.123187 0.0059899
53 1 0.626936 0.131662 0.00190745
57 1 0.75119 0.12114 0.988966
61 1 0.868201 0.126765 0.988973
34 1 0.0630714 0.192445 0.991299
46 1 0.444138 0.182525 0.00689052
58 1 0.810788 0.193416 0.987838
69 1 0.136881 0.25251 0.00224876
71 1 0.180612 0.249096 0.070999
81 1 0.498951 0.252945 0.995901
89 1 0.73912 0.252784 0.00621672
93 1 0.862501 0.251734 0.00286609
65 1 1.00039 0.25135 0.985224
66 1 0.0689316 0.301021 0.996098
72 1 0.112576 0.310442 0.063293
80 1 0.377965 0.298147 0.0595365
82 1 0.565599 0.316344 0.988225
90 1 0.802513 0.317547 0.002678
94 1 0.930714 0.312837 1.00063
101 1 0.117003 0.375523 0.00487387
105 1 0.241698 0.38233 0.00807106
117 1 0.63401 0.382189 0.997122
121 1 0.739764 0.378858 0.992121
97 1 0.994616 0.373032 0.993539
104 1 0.120062 0.430788 0.0705661
102 1 0.179363 0.442342 0.00216524
106 1 0.311317 0.434034 0.00619702
110 1 0.4328 0.423596 0.00517931
124 1 0.745014 0.435718 0.050505
122 1 0.810286 0.445675 0.987331
126 1 0.936251 0.444289 0.995579
133 1 0.126038 0.499691 1.00098
145 1 0.499532 0.481404 0.00157093
147 1 0.565321 0.504919 0.0508898
120 1 0.631101 0.443303 0.0550962
157 1 0.878482 0.510126 -0.000143103
129 1 0.00511306 0.510977 0.991996
130 1 0.0600852 0.569418 0.981836
135 1 0.192006 0.49976 0.0601827
149 1 0.626187 0.497207 0.998184
150 1 0.683172 0.569488 0.0106177
154 1 0.808785 0.562452 0.996767
134 1 0.199273 0.56218 0.0062603
138 1 0.3101 0.555888 0.000280884
146 1 0.560863 0.565638 0.00119383
181 1 0.622777 0.628167 0.000440708
156 1 0.740759 0.565131 0.0746709
163 1 0.0639096 0.619092 0.0577902
175 1 0.437568 0.610527 0.0574036
185 1 0.749868 0.621447 0.998066
189 1 0.867268 0.621939 0.989795
166 1 0.194709 0.703704 0.995563
172 1 0.252082 0.696854 0.0658693
176 1 0.37644 0.69136 0.0754259
186 1 0.804749 0.684152 0.998725
190 1 0.940116 0.689618 0.00753094
193 1 0.0114348 0.745179 0.998186
195 1 0.0636618 0.750415 0.0649286
203 1 0.317312 0.749479 0.0706048
207 1 0.440858 0.751749 0.0622996
217 1 0.745985 0.740543 0.998021
221 1 0.867486 0.748482 0.991389
204 1 0.254777 0.814489 0.0731457
212 1 0.500774 0.816458 0.0632407
210 1 0.567402 0.811012 0.00514701
218 1 0.813974 0.8129 0.998873
222 1 0.936489 0.799685 0.996673
225 1 0.997833 0.878454 0.0157932
194 1 0.052302 0.819231 0.998831
229 1 0.128198 0.879161 0.00299194
247 1 0.691835 0.878961 0.0607491
249 1 0.75668 0.870748 0.000788472
253 1 0.881994 0.865533 0.00386667
230 1 0.186873 0.941128 0.00323311
244 1 0.506399 0.926402 0.0694468
248 1 0.626081 0.930467 0.0686801
246 1 0.685293 0.93578 0.995702
254 1 0.936521 0.940523 0.0173756
21 1 0.620216 0.994594 0.994817
25 1 0.746586 0.998062 0.987735
7 1 0.187163 0.00537401 0.0499129
11 1 0.313112 0.992681 0.0550717
23 1 0.695333 0.00521735 0.0588494
31 1 0.94199 0.00424458 0.0693282
6 1 0.121607 0.0604801 0.0669927
12 1 0.259724 0.0578002 0.065881
16 1 0.37217 0.0601856 0.065648
24 1 0.635636 0.0655765 0.0605654
28 1 0.753553 0.058325 0.0520117
32 1 0.867701 0.0660654 0.0598746
4 1 0.999009 0.0594164 0.0488877
35 1 0.0665955 0.136909 0.061614
39 1 0.190903 0.12548 0.0634195
43 1 0.310651 0.119658 0.0574051
47 1 0.426342 0.120033 0.0672426
51 1 0.556813 0.126007 0.0684266
55 1 0.70372 0.123967 0.0624867
59 1 0.807596 0.121057 0.0506403
63 1 0.936158 0.12485 0.0533609
40 1 0.133826 0.188404 0.0759653
44 1 0.249415 0.18884 0.0663207
1836 1 0.368194 0.182421 0.0486982
52 1 0.500829 0.179632 0.0653159
56 1 0.628347 0.17886 0.0676857
60 1 0.765514 0.193604 0.0600912
64 1 0.865171 0.186477 0.0527573
36 1 1.00046 0.189955 0.048532
67 1 0.0639084 0.240794 0.0612056
48 1 0.307067 0.246549 0.058961
79 1 0.436936 0.246307 0.0564419
83 1 0.559134 0.268361 0.0650744
87 1 0.674064 0.246827 0.0522813
91 1 0.805778 0.263841 0.0644625
95 1 0.9352 0.241114 0.0432937
76 1 0.241311 0.308923 0.0712019
84 1 0.498615 0.316474 0.0462894
88 1 0.626114 0.32495 0.0635076
92 1 0.742655 0.328174 0.0625875
96 1 0.874341 0.328166 0.0501966
68 1 0.0114246 0.315355 0.0520931
99 1 0.0564126 0.377268 0.0615729
103 1 0.179713 0.375358 0.0617088
107 1 0.315705 0.382878 0.0689568
111 1 0.423927 0.368729 0.0589686
115 1 0.563373 0.38035 0.0606763
119 1 0.687484 0.383626 0.0709689
378 1 0.808044 0.381013 0.059797
127 1 0.927538 0.390756 0.0547109
100 1 0.999338 0.436265 0.0505587
108 1 0.253294 0.440466 0.0675457
112 1 0.377796 0.432646 0.0646188
116 1 0.500272 0.42562 0.0606968
128 1 0.870317 0.452029 0.0580447
131 1 0.0560243 0.512089 0.0628999
143 1 0.436511 0.488385 0.062053
155 1 0.810384 0.508058 0.0564947
139 1 0.310957 0.500627 0.0702565
148 1 0.50637 0.557719 0.0673218
152 1 0.605969 0.566394 0.0753468
151 1 0.694827 0.497025 0.0641447
159 1 0.938743 0.504147 0.0629842
136 1 0.125986 0.564242 0.061397
140 1 0.256901 0.578451 0.0654671
144 1 0.363472 0.5711 0.0681565
187 1 0.808132 0.624793 0.0688607
160 1 0.862716 0.567731 0.0660643
132 1 0.99673 0.573909 0.0648267
167 1 0.19024 0.629595 0.0653583
171 1 0.312939 0.640637 0.057716
179 1 0.556173 0.635605 0.0727744
183 1 0.668898 0.620308 0.0753705
191 1 0.927881 0.629028 0.060194
418 1 0.0628101 0.685958 0.127669
168 1 0.135422 0.688063 0.0533351
180 1 0.495364 0.691387 0.065062
184 1 0.619178 0.686569 0.0697913
188 1 0.748032 0.679453 0.0692548
192 1 0.864412 0.682649 0.0706394
164 1 0.000931709 0.689141 0.0606045
199 1 0.187006 0.754493 0.0692909
211 1 0.555529 0.751851 0.067532
215 1 0.695501 0.739082 0.0665078
219 1 0.807422 0.747089 0.0541341
223 1 0.931215 0.746469 0.0624258
196 1 0.000730506 0.814006 0.0610965
200 1 0.108251 0.821709 0.0635164
208 1 0.376586 0.815488 0.0687034
216 1 0.62889 0.812058 0.0749073
220 1 0.748132 0.815321 0.0639571
224 1 0.873895 0.804594 0.057297
227 1 0.0647935 0.88534 0.0565396
231 1 0.191186 0.870384 0.0651747
235 1 0.30037 0.878743 0.0642048
239 1 0.436003 0.883991 0.0592935
243 1 0.565957 0.872329 0.0618468
251 1 0.819263 0.871364 0.059311
255 1 0.942424 0.86625 0.0693335
228 1 0.00636848 0.940307 0.0740757
232 1 0.114014 0.949967 0.0432191
236 1 0.246634 0.943398 0.0641015
240 1 0.379334 0.942839 0.0575045
252 1 0.742604 0.940869 0.0568686
256 1 0.870802 0.937704 0.0628194
261 1 0.0587378 0.00310506 0.0777821
15 1 0.43462 0.00528991 0.06685
19 1 0.56599 0.998922 0.0593549
27 1 0.81608 0.00111891 0.0565978
257 1 0.992823 0.00785727 0.132195
273 1 0.502285 0.996629 0.125252
281 1 0.745817 0.996242 0.118752
285 1 0.875024 0.00426032 0.117989
258 1 0.0614509 0.0725553 0.122873
8 1 0.190618 0.0766294 0.126451
297 1 0.313348 0.0606669 0.129753
270 1 0.443927 0.0647607 0.13389
274 1 0.569504 0.0617943 0.124537
278 1 0.698971 0.0606522 0.126159
282 1 0.810817 0.0681823 0.119745
286 1 0.949611 0.0775088 0.120735
289 1 0.000318602 0.140755 0.111335
290 1 0.128408 0.126592 0.126463
266 1 0.255373 0.123761 0.129222
301 1 0.376761 0.120309 0.13003
305 1 0.49626 0.121531 0.124617
309 1 0.648189 0.123627 0.120236
313 1 0.76612 0.131081 0.118357
317 1 0.876757 0.130808 0.109071
321 1 0.0694539 0.188432 0.124725
294 1 0.195658 0.178427 0.1261
298 1 0.306978 0.188037 0.119013
302 1 0.432452 0.189547 0.124873
306 1 0.562557 0.199898 0.114752
310 1 0.694548 0.187938 0.128656
314 1 0.831927 0.196003 0.131965
318 1 0.9322 0.195296 0.109658
350 1 0.990006 0.251406 0.10442
325 1 0.122615 0.251783 0.133618
329 1 0.248239 0.253203 0.133306
333 1 0.369643 0.240423 0.115633
337 1 0.496295 0.251526 0.114922
341 1 0.630708 0.247843 0.11957
345 1 0.738344 0.261454 0.127134
349 1 0.870636 0.26847 0.10526
322 1 0.0474858 0.310048 0.127923
326 1 0.184298 0.317667 0.128757
330 1 0.309612 0.316451 0.120702
334 1 0.441642 0.311474 0.115089
338 1 0.561472 0.331712 0.131234
342 1 0.686768 0.320582 0.122558
346 1 0.807877 0.325746 0.121681
381 1 0.934893 0.31357 0.102567
353 1 0.99373 0.38383 0.112113
357 1 0.107004 0.364371 0.130464
361 1 0.239711 0.378064 0.126167
365 1 0.376217 0.369923 0.125319
369 1 0.502282 0.38778 0.136258
373 1 0.628233 0.387533 0.133212
377 1 0.751061 0.384537 0.131392
123 1 0.877919 0.386924 0.12217
354 1 0.0505513 0.452357 0.112153
358 1 0.181727 0.439445 0.118099
362 1 0.320631 0.430158 0.13818
366 1 0.437439 0.437567 0.128192
370 1 0.5566 0.441611 0.11735
374 1 0.691371 0.451191 0.134818
379 1 0.811317 0.437253 0.123238
382 1 0.940577 0.446324 0.122451
385 1 0.997199 0.50551 0.13006
389 1 0.127369 0.501914 0.117754
393 1 0.247443 0.494447 0.135947
401 1 0.492165 0.498074 0.118334
405 1 0.616748 0.498154 0.122467
409 1 0.762048 0.506438 0.126552
413 1 0.869843 0.503365 0.125233
397 1 0.378332 0.488194 0.126164
402 1 0.551837 0.555826 0.13902
410 1 0.812511 0.569719 0.134641
386 1 0.0608065 0.573188 0.131555
390 1 0.187337 0.555796 0.117355
394 1 0.309709 0.566417 0.130744
398 1 0.432776 0.553885 0.124626
406 1 0.678006 0.559691 0.126978
414 1 0.940544 0.57393 0.120941
421 1 0.122665 0.621898 0.125602
425 1 0.250766 0.634864 0.123796
429 1 0.372155 0.627629 0.119334
433 1 0.500527 0.629645 0.132889
437 1 0.608897 0.619769 0.136707
441 1 0.747717 0.623366 0.127891
445 1 0.876577 0.625013 0.120161
417 1 0.996943 0.633155 0.126068
422 1 0.193052 0.693588 0.123031
426 1 0.311703 0.690725 0.124377
430 1 0.440141 0.689327 0.124956
434 1 0.553164 0.693346 0.128015
438 1 0.692039 0.684561 0.128721
442 1 0.817574 0.679499 0.137436
446 1 0.934129 0.687999 0.121946
453 1 0.123977 0.743484 0.12205
457 1 0.253182 0.755359 0.13064
461 1 0.38312 0.757654 0.129044
465 1 0.487349 0.755538 0.136915
469 1 0.617579 0.752282 0.120147
473 1 0.749932 0.753878 0.131758
477 1 0.871601 0.74815 0.131829
449 1 0.00279793 0.748102 0.116623
450 1 0.0578562 0.816086 0.127356
454 1 0.186795 0.816675 0.131234
458 1 0.316544 0.808248 0.129694
462 1 0.441565 0.823326 0.11978
466 1 0.566743 0.820702 0.127941
470 1 0.690264 0.808087 0.12695
474 1 0.806703 0.808387 0.119393
478 1 0.951866 0.810738 0.129455
481 1 0.00150976 0.875129 0.126381
485 1 0.120698 0.8745 0.131902
489 1 0.250227 0.878006 0.131346
493 1 0.372691 0.877496 0.121429
497 1 0.499204 0.882863 0.138429
501 1 0.632268 0.87214 0.130762
505 1 0.74345 0.872296 0.12371
509 1 0.889897 0.873126 0.134924
482 1 0.0766929 0.935358 0.1186
486 1 0.185704 0.941277 0.116189
490 1 0.318244 0.938988 0.119692
494 1 0.446671 0.942451 0.126213
498 1 0.571455 0.927555 0.12597
502 1 0.686657 0.930967 0.126756
506 1 0.800733 0.937073 0.112601
263 1 0.128708 0.00498584 0.127226
262 1 0.247302 0.00146701 0.127555
269 1 0.371789 0.00342854 0.127105
277 1 0.635044 0.992155 0.118523
510 1 0.93546 0.934484 0.110049
293 1 0.121365 0.0664487 0.180541
267 1 0.308792 0.990007 0.191185
271 1 0.429587 0.000693612 0.181316
275 1 0.565301 0.00223092 0.176551
283 1 0.826423 0.00698671 0.183742
288 1 0.882924 0.0699571 0.183719
260 1 0.995734 0.064637 0.192863
268 1 0.255164 0.0671099 0.188081
272 1 0.370133 0.0739246 0.195169
276 1 0.506845 0.064431 0.180909
280 1 0.628116 0.0613754 0.189117
284 1 0.759678 0.0557488 0.182676
291 1 0.0589819 0.123257 0.186659
295 1 0.191792 0.12621 0.191847
299 1 0.315839 0.135164 0.184039
303 1 0.4371 0.117732 0.194405
307 1 0.570432 0.125841 0.173526
311 1 0.702553 0.126265 0.180803
315 1 0.823788 0.125733 0.17849
319 1 0.949902 0.128049 0.195692
292 1 0.994982 0.187872 0.17742
296 1 0.136441 0.184988 0.185042
300 1 0.249885 0.185347 0.18962
304 1 0.384042 0.195962 0.185077
308 1 0.496622 0.178464 0.185055
312 1 0.617284 0.189771 0.173255
316 1 0.761787 0.182736 0.17655
320 1 0.899319 0.19638 0.188612
323 1 0.0630788 0.24696 0.184522
327 1 0.193512 0.247112 0.188989
331 1 0.314638 0.236089 0.178812
335 1 0.45267 0.254427 0.182809
339 1 0.556923 0.261604 0.191343
343 1 0.688648 0.268374 0.189201
347 1 0.803402 0.25818 0.174364
351 1 0.931517 0.262821 0.165645
324 1 0.00618655 0.301627 0.194773
328 1 0.124482 0.305115 0.191626
332 1 0.253321 0.317252 0.185677
336 1 0.375539 0.297627 0.176307
340 1 0.501787 0.321109 0.182207
344 1 0.619112 0.314468 0.188546
348 1 0.743686 0.331975 0.19112
352 1 0.874345 0.32498 0.185537
355 1 0.0558605 0.366663 0.194701
359 1 0.171977 0.376779 0.188085
363 1 0.314925 0.365445 0.187177
367 1 0.43696 0.36882 0.178154
371 1 0.571763 0.394584 0.183524
375 1 0.687074 0.393678 0.192379
634 1 0.813809 0.381036 0.184196
383 1 0.938115 0.36954 0.181642
356 1 -0.000693672 0.435507 0.178499
360 1 0.118536 0.44307 0.170317
364 1 0.246771 0.429894 0.18998
376 1 0.62863 0.453057 0.189978
380 1 0.758775 0.441369 0.199589
384 1 0.877129 0.436612 0.189828
387 1 0.0602327 0.498862 0.182141
395 1 0.311151 0.491978 0.191458
368 1 0.381312 0.442742 0.195913
372 1 0.499099 0.445604 0.19136
407 1 0.688997 0.50771 0.194611
411 1 0.822521 0.500797 0.191818
391 1 0.18409 0.482851 0.188072
399 1 0.430545 0.504701 0.193893
403 1 0.560279 0.495398 0.19099
408 1 0.619774 0.558909 0.19155
415 1 0.928384 0.509987 0.188464
388 1 0.986002 0.572817 0.189412
392 1 0.123593 0.558884 0.186643
396 1 0.244783 0.570008 0.185963
400 1 0.371018 0.56297 0.18215
404 1 0.495083 0.559123 0.197717
412 1 0.758168 0.55441 0.193682
416 1 0.8659 0.567074 0.197394
419 1 0.0512436 0.63265 0.187818
423 1 0.190126 0.634954 0.182037
427 1 0.308595 0.62988 0.188576
431 1 0.43169 0.621066 0.176389
435 1 0.552458 0.617977 0.194474
439 1 0.686076 0.625093 0.186363
443 1 0.805503 0.623912 0.201069
447 1 0.936387 0.639532 0.185412
424 1 0.129282 0.686987 0.19708
428 1 0.252981 0.690054 0.184242
432 1 0.377027 0.68885 0.172242
436 1 0.497113 0.688647 0.195987
440 1 0.620352 0.6869 0.181404
444 1 0.744037 0.685711 0.199856
475 1 0.865809 0.69222 0.201214
479 1 0.00822703 0.697981 0.187536
451 1 0.0649679 0.749524 0.186376
455 1 0.184611 0.750946 0.179528
459 1 0.322205 0.756828 0.196629
463 1 0.432166 0.751337 0.195791
467 1 0.56324 0.744251 0.196074
471 1 0.692257 0.743448 0.189923
730 1 0.803008 0.740045 0.191908
448 1 0.943223 0.751151 0.18555
452 1 0.00194589 0.818423 0.188201
456 1 0.120182 0.810111 0.179481
460 1 0.253538 0.814444 0.192223
464 1 0.374618 0.816923 0.189445
468 1 0.491879 0.816616 0.188341
472 1 0.634907 0.816776 0.192647
476 1 0.75884 0.817578 0.187682
480 1 0.86552 0.812442 0.184129
483 1 0.060602 0.879401 0.192647
487 1 0.187008 0.887969 0.189615
491 1 0.313619 0.88541 0.17785
495 1 0.42902 0.881019 0.18732
499 1 0.565034 0.87601 0.186203
503 1 0.685679 0.884552 0.195677
507 1 0.815255 0.880678 0.17914
511 1 0.942775 0.884056 0.191849
488 1 0.120249 0.940578 0.186582
265 1 0.24701 0.941663 0.184664
496 1 0.372279 0.938138 0.197227
500 1 0.498034 0.946326 0.189809
504 1 0.625608 0.945722 0.183516
508 1 0.763109 0.946451 0.187761
484 1 0.00549813 0.94128 0.178396
259 1 0.0588211 0.00273363 0.195007
492 1 0.180746 1.00026 0.18478
279 1 0.6962 0.99374 0.1899
512 1 0.881855 0.936305 0.187709
287 1 0.928836 0.00356 0.181487
264 1 0.125493 0.0132024 0.239596
521 1 0.248636 1.00064 0.239811
529 1 0.498291 0.00462992 0.251397
530 1 0.565384 0.0577841 0.245958
537 1 0.758437 0.991229 0.246701
541 1 0.875939 0.0131759 0.247763
513 1 0.99407 -0.000197824 0.246044
514 1 0.0549759 0.0659552 0.251921
518 1 0.195177 0.0684731 0.246075
522 1 0.321506 0.0718021 0.26073
526 1 0.433215 0.0564297 0.254879
534 1 0.688337 0.0741125 0.252292
538 1 0.810289 0.0618332 0.250969
542 1 0.941024 0.0654211 0.251789
549 1 0.135917 0.128363 0.251234
553 1 0.262879 0.12171 0.250187
557 1 0.373434 0.136732 0.2449
561 1 0.515476 0.119698 0.243515
565 1 0.624933 0.131195 0.23905
569 1 0.759118 0.123375 0.239833
573 1 0.878036 0.123959 0.239153
545 1 0.00431677 0.136721 0.254965
546 1 0.0502986 0.195325 0.244627
550 1 0.19668 0.182896 0.253057
554 1 0.312463 0.188686 0.252124
558 1 0.44256 0.181574 0.248996
562 1 0.564906 0.193066 0.243962
566 1 0.686406 0.19845 0.240009
570 1 0.823164 0.183067 0.242666
574 1 0.934562 0.190681 0.261203
577 1 0.99266 0.250096 0.254606
581 1 0.128203 0.236133 0.247852
585 1 0.255159 0.253636 0.250369
589 1 0.386622 0.248102 0.247999
593 1 0.506752 0.254866 0.250643
597 1 0.621079 0.258478 0.247541
601 1 0.74673 0.253928 0.254124
605 1 0.867634 0.257457 0.237559
578 1 0.0591198 0.308194 0.25639
582 1 0.190473 0.313006 0.245141
586 1 0.323083 0.300535 0.241672
590 1 0.445071 0.305367 0.247607
594 1 0.567786 0.32621 0.247393
598 1 0.687554 0.316309 0.256891
602 1 0.804499 0.313429 0.238654
606 1 0.933639 0.310117 0.251112
613 1 0.128365 0.373536 0.25167
617 1 0.25507 0.377503 0.247255
621 1 0.380128 0.363672 0.242428
625 1 0.498458 0.373335 0.253115
629 1 0.635656 0.380665 0.254948
633 1 0.757446 0.37888 0.252258
637 1 0.86047 0.380057 0.251588
609 1 0.99465 0.377862 0.247595
610 1 0.0627755 0.435312 0.242836
614 1 0.189541 0.432758 0.251938
622 1 0.438385 0.435852 0.256415
626 1 0.552725 0.434442 0.250617
630 1 0.696685 0.444572 0.260853
665 1 0.807528 0.450252 0.271036
638 1 0.94232 0.442326 0.239449
645 1 0.109568 0.504044 0.245032
618 1 0.313673 0.425933 0.253608
661 1 0.628534 0.494126 0.257656
663 1 0.747263 0.50623 0.265173
669 1 0.878795 0.496697 0.252452
649 1 0.247109 0.49561 0.248161
653 1 0.372938 0.493006 0.263975
657 1 0.493375 0.500464 0.255259
641 1 0.995179 0.504943 0.237925
642 1 0.0563167 0.561289 0.231048
646 1 0.186992 0.547233 0.240335
650 1 0.31157 0.559028 0.254592
654 1 0.421551 0.558227 0.261199
658 1 0.562573 0.564129 0.253669
662 1 0.677936 0.560052 0.257697
666 1 0.810208 0.55618 0.257811
670 1 0.936105 0.552134 0.259063
673 1 0.998621 0.623496 0.257411
677 1 0.141319 0.618741 0.251881
681 1 0.253347 0.622802 0.251021
685 1 0.363947 0.623197 0.249474
689 1 0.502715 0.632244 0.25844
693 1 0.61719 0.622941 0.242567
697 1 0.740123 0.609568 0.253144
701 1 0.875597 0.627157 0.265001
705 1 0.0584149 0.681615 0.250646
678 1 0.199703 0.686628 0.247763
682 1 0.308824 0.692238 0.246051
686 1 0.430869 0.679796 0.250477
690 1 0.56153 0.682315 0.24887
694 1 0.678029 0.679282 0.246419
698 1 0.821145 0.687179 0.2698
702 1 0.939972 0.688593 0.251061
709 1 0.130009 0.757982 0.252729
713 1 0.246345 0.763273 0.258613
717 1 0.379543 0.749577 0.256861
721 1 0.496619 0.755083 0.243724
725 1 0.625543 0.747841 0.243874
729 1 0.753872 0.746394 0.255315
733 1 0.879037 0.757204 0.243009
734 1 0.0115602 0.752875 0.252448
706 1 0.0724118 0.812945 0.241687
710 1 0.185152 0.817368 0.241291
714 1 0.310822 0.836612 0.245288
718 1 0.44041 0.81194 0.255322
722 1 0.56597 0.823553 0.245414
726 1 0.697674 0.814763 0.243414
736 1 0.820991 0.813383 0.250154
737 1 0.937048 0.811494 0.239148
738 1 0.995432 0.874302 0.254542
741 1 0.126641 0.881588 0.246416
745 1 0.240836 0.875566 0.252775
749 1 0.378348 0.880799 0.24801
753 1 0.505121 0.878326 0.245183
757 1 0.623326 0.881597 0.258526
761 1 0.765755 0.873865 0.250293
765 1 0.872997 0.880096 0.242656
517 1 0.0701087 0.937866 0.25271
742 1 0.182679 0.947161 0.244243
750 1 0.445573 0.934103 0.250316
754 1 0.567059 0.940192 0.245271
762 1 0.828202 0.945807 0.248032
766 1 0.936197 0.942738 0.250572
746 1 0.310272 0.940016 0.254584
525 1 0.369748 0.00179777 0.245681
533 1 0.623123 -0.000701334 0.249756
758 1 0.68869 0.944701 0.254074
527 1 0.439358 0.991975 0.305499
535 1 0.687988 0.00522771 0.310596
544 1 0.873222 0.0647406 0.307969
543 1 0.940853 0.999362 0.307741
516 1 0.00565032 0.0468563 0.314705
520 1 0.123133 0.0618531 0.317164
524 1 0.249567 0.0690074 0.310105
528 1 0.386271 0.0608269 0.323284
532 1 0.496206 0.0585934 0.320017
536 1 0.624028 0.0609894 0.306517
540 1 0.747843 0.0596841 0.302901
547 1 0.0688595 0.12319 0.314384
551 1 0.184997 0.127926 0.318425
555 1 0.320758 0.130903 0.319095
559 1 0.440376 0.127496 0.308426
563 1 0.547843 0.125133 0.313005
567 1 0.692174 0.142564 0.305693
571 1 0.815037 0.123908 0.301395
575 1 0.929783 0.127514 0.310075
548 1 1.00003 0.186361 0.319301
552 1 0.124349 0.191815 0.319367
556 1 0.254859 0.1824 0.313306
560 1 0.379922 0.186606 0.314432
564 1 0.498469 0.197568 0.308409
568 1 0.621549 0.198417 0.302161
572 1 0.761558 0.19089 0.300015
576 1 0.87668 0.186376 0.312736
579 1 0.0563939 0.24899 0.315395
583 1 0.187887 0.244657 0.311875
587 1 0.315004 0.248373 0.311739
591 1 0.435233 0.246886 0.311607
595 1 0.557591 0.260613 0.329413
603 1 0.814577 0.265118 0.303164
607 1 0.93439 0.253359 0.317425
580 1 0.996514 0.30927 0.321574
584 1 0.121744 0.302391 0.304429
588 1 0.249601 0.320435 0.311215
592 1 0.370586 0.312048 0.305995
596 1 0.497747 0.315551 0.314336
600 1 0.612192 0.324037 0.311283
604 1 0.741849 0.316397 0.317927
608 1 0.879297 0.316736 0.31448
611 1 0.0601942 0.379841 0.300218
615 1 0.192316 0.376572 0.314145
619 1 0.312886 0.37386 0.313972
623 1 0.431251 0.369766 0.308253
627 1 0.554134 0.37803 0.311658
631 1 0.682536 0.376005 0.318166
635 1 0.801151 0.37186 0.320067
639 1 0.941921 0.368499 0.307258
612 1 0.989753 0.448915 0.303447
616 1 0.130196 0.428402 0.310896
620 1 0.250274 0.436394 0.309124
624 1 0.376641 0.433753 0.317573
628 1 0.502069 0.443962 0.310836
632 1 0.626686 0.431324 0.322127
636 1 0.746038 0.429121 0.317644
655 1 0.437589 0.498179 0.318518
659 1 0.569922 0.495185 0.312517
917 1 0.686107 0.507205 0.320565
667 1 0.809606 0.513493 0.326408
640 1 0.898697 0.432436 0.309281
643 1 0.063312 0.488477 0.30765
647 1 0.186431 0.503753 0.312961
651 1 0.305471 0.509588 0.324976
660 1 0.495173 0.562707 0.307954
668 1 0.741432 0.566325 0.320919
671 1 0.933876 0.50542 0.322773
644 1 0.00266778 0.566553 0.310963
648 1 0.122472 0.553974 0.307204
652 1 0.246732 0.563035 0.314266
656 1 0.3681 0.556965 0.324464
664 1 0.617424 0.566168 0.313418
922 1 0.878156 0.573037 0.321624
675 1 0.0618509 0.623048 0.305779
679 1 0.186789 0.633605 0.318686
683 1 0.3119 0.612357 0.31753
687 1 0.431066 0.622135 0.320967
691 1 0.562787 0.623416 0.314306
695 1 0.678626 0.622161 0.308536
699 1 0.800062 0.617896 0.305461
672 1 0.942862 0.620885 0.315378
676 1 0.999444 0.68298 0.313391
420 1 0.125452 0.68709 0.29919
684 1 0.256484 0.685392 0.305545
688 1 0.371541 0.684858 0.317544
692 1 0.505559 0.689418 0.31727
696 1 0.62521 0.68514 0.310181
700 1 0.742517 0.687325 0.303767
703 1 0.884989 0.687845 0.315667
674 1 0.0597445 0.747411 0.318112
711 1 0.179642 0.774934 0.312671
715 1 0.314113 0.753675 0.305113
719 1 0.447183 0.751881 0.308035
723 1 0.567333 0.74327 0.30555
727 1 0.687439 0.749331 0.296155
731 1 0.825229 0.759734 0.321933
735 1 0.933236 0.747141 0.309065
712 1 0.109471 0.818802 0.317941
716 1 0.251931 0.822002 0.318827
720 1 0.371533 0.820059 0.307652
724 1 0.509637 0.806273 0.306523
728 1 0.628284 0.814675 0.298343
732 1 0.759197 0.811761 0.307037
767 1 0.885185 0.819475 0.314499
707 1 0.0222423 0.818566 0.308895
739 1 0.0665237 0.888055 0.317594
743 1 0.181249 0.874406 0.307906
747 1 0.309114 0.884481 0.314293
751 1 0.439455 0.881255 0.308377
755 1 0.556283 0.881119 0.30917
763 1 0.816538 0.872428 0.318878
708 1 0.938563 0.873252 0.311182
744 1 0.129148 0.941379 0.314192
748 1 0.236958 0.934903 0.308942
752 1 0.373644 0.943272 0.311844
756 1 0.506328 0.944457 0.308045
760 1 0.621798 0.942878 0.311722
759 1 0.687247 0.867402 0.317646
764 1 0.750758 0.925613 0.309789
768 1 0.876271 0.944453 0.311644
740 1 0.992084 0.936013 0.316889
515 1 0.0649985 0.994896 0.324601
519 1 0.189232 0.00704851 0.303651
523 1 0.301855 0.0105304 0.314891
531 1 0.565779 0.001187 0.300498
539 1 0.808898 0.00343143 0.314265
769 1 0.993203 0.00358113 0.381831
770 1 0.0687127 0.0580809 0.370624
774 1 0.187084 0.0632012 0.366303
781 1 0.373108 0.990585 0.377117
790 1 0.688367 0.0783746 0.356446
794 1 0.820902 0.0598847 0.370954
797 1 0.87982 0.996265 0.374663
778 1 0.32144 0.0630918 0.374004
782 1 0.441058 0.0502705 0.384332
786 1 0.558454 0.0612969 0.371915
798 1 0.928267 0.0625161 0.372968
801 1 0.00487513 0.113504 0.362986
805 1 0.125784 0.127912 0.371
809 1 0.254262 0.141224 0.382984
813 1 0.393798 0.122467 0.376787
817 1 0.485185 0.115196 0.377053
821 1 0.620137 0.130751 0.360886
825 1 0.759195 0.123422 0.359493
829 1 0.865911 0.127144 0.365058
802 1 0.058626 0.187361 0.376357
806 1 0.182671 0.185434 0.383641
810 1 0.312149 0.19981 0.37743
814 1 0.441305 0.18758 0.367842
822 1 0.684858 0.188525 0.371812
826 1 0.805802 0.193856 0.369433
830 1 0.93771 0.181533 0.374659
833 1 0.994755 0.252194 0.379125
837 1 0.131753 0.249762 0.377232
841 1 0.252113 0.253811 0.361249
845 1 0.374175 0.251135 0.367843
849 1 0.487582 0.250261 0.372545
853 1 0.620757 0.238488 0.370966
599 1 0.683497 0.252817 0.308773
861 1 0.869046 0.249926 0.375497
834 1 0.0750903 0.312988 0.370141
838 1 0.185499 0.310896 0.367758
842 1 0.315777 0.308996 0.37037
846 1 0.43561 0.308824 0.362505
850 1 0.558902 0.326359 0.385816
854 1 0.68414 0.304761 0.375006
858 1 0.803868 0.305063 0.373227
862 1 0.934815 0.317256 0.376164
865 1 0.00957885 0.381337 0.363179
869 1 0.135619 0.3811 0.376077
873 1 0.257303 0.375848 0.373924
877 1 0.372206 0.367942 0.367198
881 1 0.489729 0.379217 0.365953
885 1 0.623952 0.372395 0.386253
893 1 0.866875 0.370186 0.372798
866 1 0.0663548 0.438878 0.377348
870 1 0.19204 0.444893 0.365388
874 1 0.313128 0.441293 0.365176
878 1 0.431729 0.431705 0.374194
882 1 0.562362 0.42567 0.379338
886 1 0.688778 0.437285 0.383337
890 1 0.815489 0.441396 0.378689
894 1 0.937951 0.442422 0.377
909 1 0.373705 0.491701 0.376054
913 1 0.512137 0.501757 0.367439
920 1 0.623811 0.488832 0.384044
921 1 0.744163 0.506249 0.3795
897 1 0.995844 0.50317 0.369607
901 1 0.131431 0.496284 0.369738
905 1 0.249507 0.500024 0.375053
906 1 0.308316 0.563192 0.386334
914 1 0.5579 0.565624 0.369014
925 1 0.867855 0.507734 0.377475
898 1 0.0612648 0.554597 0.368742
902 1 0.176252 0.564972 0.36446
910 1 0.447687 0.561772 0.373627
918 1 0.6691 0.571439 0.382205
955 1 0.813785 0.576184 0.380656
926 1 0.940522 0.569904 0.369375
929 1 0.0141922 0.621141 0.376338
933 1 0.115095 0.616339 0.368041
937 1 0.246446 0.622254 0.380561
941 1 0.374484 0.612769 0.378624
945 1 0.498685 0.626458 0.371147
949 1 0.61245 0.630878 0.379769
953 1 0.754229 0.632543 0.373012
957 1 0.883813 0.63122 0.382306
930 1 0.0575402 0.689557 0.372522
934 1 0.197138 0.701013 0.361229
938 1 0.306974 0.67969 0.379968
942 1 0.426986 0.690212 0.377531
946 1 0.560655 0.693628 0.381417
950 1 0.678211 0.677574 0.370075
704 1 0.81201 0.686746 0.364471
958 1 0.946866 0.69214 0.372417
961 1 0.990941 0.762479 0.369922
680 1 0.122883 0.754857 0.370942
969 1 0.258474 0.750979 0.36116
973 1 0.385039 0.758925 0.36149
977 1 0.493388 0.755478 0.36916
981 1 0.629128 0.748592 0.358112
985 1 0.748396 0.745342 0.369362
989 1 0.886408 0.749347 0.375771
962 1 0.0593626 0.809975 0.382898
965 1 0.190961 0.821319 0.382959
970 1 0.316923 0.817282 0.378108
974 1 0.429863 0.821929 0.37332
978 1 0.566005 0.797372 0.366436
982 1 0.680373 0.809731 0.372312
986 1 0.823317 0.819732 0.37606
990 1 0.93274 0.818532 0.379141
993 1 0.994717 0.871066 0.382014
997 1 0.128885 0.872642 0.381226
1005 1 0.368855 0.881633 0.363664
1009 1 0.50915 0.868984 0.387923
1013 1 0.613017 0.872271 0.367797
1017 1 0.746522 0.880215 0.379633
1021 1 0.879666 0.879035 0.371073
994 1 0.0772427 0.934929 0.385751
998 1 0.188777 0.932398 0.372296
1002 1 0.301276 0.948832 0.369643
1006 1 0.453036 0.929033 0.3744
1014 1 0.684217 0.940471 0.365529
1018 1 0.805616 0.937567 0.373538
1022 1 0.938851 0.936151 0.378333
773 1 0.130821 0.999711 0.373756
777 1 0.248916 0.0109077 0.372627
785 1 0.500846 0.995247 0.372391
1010 1 0.559604 0.937221 0.376678
789 1 0.620406 -0.000551082 0.372754
793 1 0.743595 0.0107074 0.376554
776 1 0.115542 0.0605202 0.445182
779 1 0.311335 0.0038772 0.434051
792 1 0.631619 0.0589563 0.430319
796 1 0.75735 0.072905 0.424477
799 1 0.931001 0.995668 0.449253
772 1 0.997463 0.0508248 0.44559
780 1 0.249011 0.0727545 0.432547
784 1 0.375731 0.0577142 0.44126
788 1 0.502873 0.0525902 0.436215
800 1 0.87589 0.0724664 0.43516
803 1 0.0535842 0.126705 0.427082
811 1 0.324496 0.116374 0.442131
815 1 0.435519 0.122962 0.445631
819 1 0.575219 0.120147 0.429664
827 1 0.815281 0.13311 0.440142
831 1 0.941174 0.126934 0.436082
1057 1 0.997121 0.190866 0.440108
808 1 0.121174 0.18408 0.444288
812 1 0.256459 0.198181 0.445432
816 1 0.372314 0.182791 0.4339
818 1 0.534542 0.180123 0.384502
824 1 0.608411 0.190432 0.443658
828 1 0.74877 0.184897 0.430431
832 1 0.877954 0.184133 0.431014
835 1 0.064932 0.25009 0.432709
839 1 0.195102 0.246779 0.439414
843 1 0.311892 0.254369 0.45168
857 1 0.74295 0.248948 0.362203
859 1 0.808781 0.247605 0.433607
804 1 0.934103 0.247189 0.429274
840 1 0.133913 0.303175 0.434291
844 1 0.251455 0.309244 0.440506
848 1 0.369097 0.314796 0.435811
836 1 0.994763 0.308563 0.436729
867 1 0.0502661 0.376183 0.431466
871 1 0.193529 0.365662 0.433321
875 1 0.310774 0.365756 0.437579
879 1 0.428556 0.374152 0.432292
889 1 0.740507 0.373442 0.376649
895 1 0.94072 0.378568 0.439058
868 1 0.00264 0.449685 0.433888
880 1 0.377285 0.436577 0.435278
896 1 0.87863 0.44648 0.436054
872 1 0.126728 0.443683 0.438398
876 1 0.255681 0.436395 0.432761
915 1 0.555339 0.489416 0.429923
919 1 0.684021 0.513527 0.433501
927 1 0.945171 0.516967 0.436667
899 1 0.0670865 0.500955 0.433609
903 1 0.18957 0.496142 0.429747
907 1 0.309744 0.495964 0.442649
916 1 0.500346 0.556427 0.43175
923 1 0.813884 0.500398 0.43298
900 1 0.015695 0.566487 0.438429
904 1 0.123428 0.561659 0.429065
908 1 0.247312 0.561786 0.443131
912 1 0.368526 0.55494 0.436264
1205 1 0.607144 0.553311 0.428333
924 1 0.753704 0.559854 0.441813
928 1 0.878079 0.564097 0.433792
931 1 0.0718111 0.637468 0.437349
935 1 0.187715 0.63097 0.440566
943 1 0.439046 0.615556 0.435953
1209 1 0.818274 0.637123 0.436631
959 1 0.948907 0.620962 0.431777
932 1 0.00259335 0.686274 0.443041
936 1 0.133497 0.687851 0.420914
940 1 0.247741 0.688491 0.431517