ITEM: TIMESTEP
100000
ITEM: NUMBER OF ATOMS
2048
ITEM: BOX BOUNDS pp pp pp
0.0000000000000000e+00 1.1351867295763070e+01
0.0000000000000000e+00 1.1351867295763070e+01
0.0000000000000000e+00 1.1351867295763070e+01
ITEM: ATOMS id type xs ys zs
8 1 0.125898 0.0672027 0.0593918
9 1 0.25477 -0.000719235 0.00825363
15 1 0.439644 0.996823 0.0571467
21 1 0.624526 0.99878 -0.000919565
6 1 0.190043 0.0618624 0.00181472
18 1 0.560891 0.0629033 0.994367
22 1 0.689359 0.0600087 0.998649
26 1 0.81681 0.0611276 0.999478
39 1 0.187163 0.131771 0.067012
47 1 0.441229 0.115998 0.0674219
49 1 0.49581 0.126847 0.999506
53 1 0.63269 0.123341 0.997628
33 1 0.00141918 0.129524 0.997921
42 1 0.315091 0.187758 0.998697
50 1 0.565257 0.185542 0.996962
54 1 0.685493 0.191168 1.00189
58 1 0.805491 0.184206 0.99907
73 1 0.251412 0.249312 0.996835
81 1 0.503234 0.251439 0.997392
85 1 0.621088 0.247144 0.99684
89 1 0.745938 0.245927 1.00205
95 1 0.937311 0.253936 0.0610419
70 1 0.193082 0.315292 1.00134
74 1 0.311441 0.31183 1.00216
86 1 0.680751 0.310308 0.00319485
90 1 0.814166 0.312994 0.00363081
68 1 0.995323 0.314973 0.0590434
109 1 0.372339 0.375265 0.998355
111 1 0.441594 0.36769 0.0640597
117 1 0.626142 0.379084 0.00140878
125 1 0.873805 0.376395 0.0005187
98 1 0.0613218 0.439397 0.000550447
102 1 0.188646 0.441989 0.00449985
106 1 0.313251 0.433156 0.00167575
110 1 0.439236 0.43153 0.00230118
116 1 0.503996 0.436053 0.0623526
114 1 0.566514 0.436509 0.999421
118 1 0.686577 0.434774 0.0033687
122 1 0.81678 0.439676 0.999472
126 1 0.939655 0.438572 0.0030177
133 1 0.12427 0.495176 0.00273404
141 1 0.378694 0.492037 0.993993
145 1 0.499517 0.489544 0.998673
149 1 0.62883 0.496632 0.00391496
155 1 0.81634 0.503069 0.0624096
157 1 0.875462 0.500153 0.996673
136 1 0.126491 0.564168 0.0660657
134 1 0.189233 0.561097 0.00517268
146 1 0.558824 0.558382 0.00019917
173 1 0.372311 0.625371 0.998472
181 1 0.621572 0.625433 0.994162
183 1 0.683631 0.62335 0.0568213
185 1 0.752291 0.622842 0.994104
189 1 0.878774 0.632224 0.993408
166 1 0.191234 0.69052 0.993956
170 1 0.312837 0.685407 0.99527
174 1 0.44225 0.685879 0.999979
182 1 0.689174 0.6863 0.998505
192 1 0.88205 0.693635 0.0667683
190 1 0.937102 0.691418 0.994525
193 1 0.009626 0.751005 0.998741
197 1 0.123241 0.748316 1.00535
213 1 0.620559 0.752078 0.996135
221 1 0.880596 0.757952 0.994694
200 1 0.124643 0.813956 0.0604749
202 1 0.311783 0.811392 0.00151711
210 1 0.559574 0.813663 0.00048189
218 1 0.81384 0.812598 -0.00167332
222 1 0.944767 0.821825 0.995906
233 1 0.250429 0.873771 0.00506025
245 1 0.631019 0.873449 -0.00153628
249 1 0.750661 0.878058 0.994556
253 1 0.873395 0.879651 0.000824271
229 1 0.121941 0.87783 0.00295943
236 1 0.248282 0.93211 0.06367
240 1 0.372909 0.935556 0.0643164
239 1 0.441762 0.877178 0.0627245
250 1 0.81174 0.935723 0.00432377
25 1 0.7549 0.998987 0.995639
29 1 0.874929 0.996469 0.000717318
4 1 0.00334282 0.0645318 0.061181
3 1 0.0621395 0.00553549 0.0603894
20 1 0.504433 0.0594789 0.0587775
19 1 0.563914 0.00106289 0.0579203
23 1 0.691658 0.000270893 0.0586385
27 1 0.817526 1.00364 0.0604953
12 1 0.245114 0.0607931 0.0662364
16 1 0.378483 0.0595771 0.0602206
24 1 0.625119 0.0660985 0.058544
28 1 0.748629 0.0584232 0.061385
32 1 0.882965 0.065869 0.0604473
35 1 0.0624901 0.130438 0.0598654
43 1 0.312126 0.128022 0.0613927
51 1 0.563953 0.12456 0.0627051
55 1 0.687922 0.127313 0.0612161
59 1 0.812783 0.125231 0.0664911
63 1 0.942702 0.122864 0.0592437
36 1 0.995688 0.193971 0.057976
40 1 0.126158 0.195444 0.0684181
44 1 0.253697 0.191338 0.058641
48 1 0.376311 0.184028 0.0602417
52 1 0.499901 0.186428 0.0574702
56 1 0.628031 0.187754 0.063312
60 1 0.747429 0.188586 0.0666896
64 1 0.875004 0.186341 0.0560795
67 1 0.0518626 0.252146 0.0645037
71 1 0.189626 0.25158 0.0646799
75 1 0.314336 0.249403 0.065561
79 1 0.442831 0.249072 0.0608442
83 1 0.568224 0.249326 0.0625606
87 1 0.69152 0.24961 0.0618677
91 1 0.808851 0.251099 0.0604611
72 1 0.128329 0.310669 0.0644091
76 1 0.251602 0.306652 0.0646978
80 1 0.378096 0.311632 0.0536007
84 1 0.502598 0.309731 0.0660933
88 1 0.622998 0.315853 0.0674539
92 1 0.751352 0.313656 0.0608409
96 1 0.877094 0.315917 0.0614983
99 1 0.0644297 0.373305 0.0617264
103 1 0.187451 0.377616 0.0595016
107 1 0.317657 0.374827 0.0592493
115 1 0.564328 0.377032 0.0632817
119 1 0.686522 0.380045 0.0677766
123 1 0.809878 0.378702 0.0645396
381 1 0.880649 0.38181 0.126096
127 1 0.935748 0.375848 0.0600962
104 1 0.126811 0.437336 0.0645219
108 1 0.248735 0.440932 0.0666365
112 1 0.380457 0.439945 0.0664301
120 1 0.626443 0.435358 0.062941
124 1 0.750808 0.438083 0.0648919
128 1 0.879157 0.437257 0.0595213
100 1 0.00302536 0.431917 0.0663772
131 1 0.0663588 0.495898 0.0645494
135 1 0.187766 0.502074 0.0644697
139 1 0.313074 0.504124 0.0669998
143 1 0.444233 0.496895 0.0602232
147 1 0.56085 0.496311 0.0634842
151 1 0.694191 0.504222 0.0615851
159 1 0.941152 0.500925 0.0671989
132 1 0.995769 0.570782 0.0602923
140 1 0.251139 0.565212 0.0629198
144 1 0.376613 0.564294 0.0619351
148 1 0.49842 0.561611 0.0629997
152 1 0.622683 0.558359 0.063802
156 1 0.755223 0.563716 0.0568354
160 1 0.878689 0.56094 0.0582925
163 1 0.0641662 0.622632 0.0601434
167 1 0.190617 0.626052 0.0672431
171 1 0.310871 0.625263 0.0616156
175 1 0.440028 0.624596 0.056565
179 1 0.566811 0.630852 0.0616002
441 1 0.751506 0.621145 0.121358
187 1 0.818432 0.623867 0.0626002
191 1 0.933969 0.627399 0.0672121
168 1 0.128589 0.687483 0.0653189
172 1 0.249689 0.689286 0.0651337
176 1 0.383123 0.687564 0.0611933
180 1 0.506121 0.687485 0.0601478
184 1 0.626743 0.689646 0.059245
188 1 0.749634 0.678452 0.060202
164 1 0.00140152 0.692852 0.0590601
195 1 0.0622424 0.751203 0.0612636
453 1 0.11999 0.746877 0.120247
199 1 0.187584 0.745616 0.0620073
203 1 0.314674 0.751258 0.0629945
207 1 0.433404 0.750002 0.0559351
211 1 0.563609 0.748591 0.0617896
215 1 0.68728 0.74634 0.0600648
219 1 0.81326 0.74649 0.0646389
223 1 0.944317 0.750034 0.0551411
196 1 -0.000758864 0.814648 0.0600679
204 1 0.248562 0.809306 0.0576184
208 1 0.371678 0.814506 0.0702057
212 1 0.5016 0.816463 0.0616236
216 1 0.623118 0.810935 0.0612349
220 1 0.751296 0.80884 0.065781
224 1 0.884669 0.810754 0.0619126
227 1 0.0593483 0.872145 0.059693
231 1 0.185802 0.877198 0.0632844
235 1 0.30801 0.868977 0.0652879
243 1 0.569288 0.874848 0.0601197
247 1 0.69158 0.872483 0.062968
251 1 0.81531 0.871852 0.063949
509 1 0.877112 0.870314 0.127384
228 1 0.00415473 0.934263 0.0642163
232 1 0.122538 0.945999 0.0588212
244 1 0.504658 0.937821 0.0547776
248 1 0.63118 0.938928 0.0599996
252 1 0.750673 0.93908 0.0598096
256 1 0.880901 0.93937 0.0661842
255 1 0.942594 0.879763 0.0609791
7 1 0.188355 0.996456 0.066208
11 1 0.311841 0.99317 0.068895
31 1 0.940271 0.00165397 0.0661451
261 1 0.125786 0.00486626 0.121882
269 1 0.372869 0.996878 0.126959
273 1 0.505269 1.00111 0.123499
277 1 0.62512 0.000971323 0.122571
281 1 0.75008 0.999062 0.120772
285 1 0.88366 1.00309 0.124249
286 1 0.942366 0.0703823 0.133009
258 1 0.0627993 0.0644569 0.127354
262 1 0.178663 0.0710288 0.12351
266 1 0.314346 0.0643804 0.120961
270 1 0.442226 0.0513381 0.126121
274 1 0.566638 0.0646766 0.120089
278 1 0.683808 0.061599 0.124275
282 1 0.822697 0.0596165 0.125076
289 1 0.00283814 0.131926 0.12041
293 1 0.122262 0.132319 0.123865
297 1 0.249689 0.129324 0.125353
301 1 0.373323 0.125166 0.123399
305 1 0.505807 0.118811 0.123323
309 1 0.625905 0.122911 0.130742
313 1 0.754574 0.118681 0.120765
317 1 0.878451 0.130088 0.126453
290 1 0.0628756 0.194832 0.124309
294 1 0.189621 0.188459 0.12656
298 1 0.314795 0.188018 0.126385
302 1 0.438201 0.17984 0.123981
306 1 0.566021 0.185064 0.127462
310 1 0.681638 0.186127 0.122779
314 1 0.814749 0.188825 0.11991
318 1 0.941154 0.195609 0.125257
325 1 0.130615 0.252894 0.128478
329 1 0.251691 0.250877 0.125218
333 1 0.372057 0.244376 0.127873
337 1 0.499579 0.24228 0.12287
341 1 0.626837 0.2516 0.129137
345 1 0.752579 0.252653 0.122942
349 1 0.872158 0.247322 0.125012
321 1 0.997882 0.256889 0.128096
322 1 0.0653863 0.311829 0.125606
326 1 0.192345 0.312513 0.127501
330 1 0.319797 0.314005 0.121521
334 1 0.432119 0.304167 0.119405
338 1 0.563567 0.308749 0.131817
342 1 0.687171 0.312061 0.123979
346 1 0.820056 0.316721 0.130907
350 1 0.933136 0.308564 0.122823
353 1 1.0001 0.372696 0.122119
357 1 0.12094 0.374507 0.12331
361 1 0.252532 0.367694 0.125767
365 1 0.376512 0.370531 0.124163
369 1 0.503294 0.373852 0.128782
373 1 0.624784 0.375446 0.128662
377 1 0.748989 0.371769 0.124573
354 1 0.0638352 0.437236 0.129496
358 1 0.18797 0.430104 0.125537
362 1 0.315436 0.430914 0.126114
366 1 0.438806 0.431575 0.12164
370 1 0.561763 0.437998 0.125314
374 1 0.688623 0.436595 0.131061
378 1 0.809483 0.434796 0.130278
382 1 0.941194 0.439144 0.125614
385 1 0.00698367 0.499492 0.121949
389 1 0.126001 0.497144 0.125825
393 1 0.249208 0.500205 0.132237
397 1 0.383192 0.501817 0.122644
401 1 0.499394 0.495742 0.125188
405 1 0.630809 0.500153 0.12548
409 1 0.754231 0.49556 0.125493
413 1 0.870445 0.500999 0.126812
386 1 0.0621919 0.561805 0.123355
390 1 0.186112 0.559289 0.125149
394 1 0.320347 0.559682 0.127351
398 1 0.438745 0.5624 0.121045
402 1 0.564381 0.555319 0.124417
406 1 0.690212 0.56501 0.123439
410 1 0.814414 0.561582 0.123872
414 1 0.932309 0.561944 0.12294
417 1 0.000672551 0.626528 0.124636
421 1 0.126845 0.62346 0.122969
425 1 0.251533 0.627987 0.124028
429 1 0.379353 0.626486 0.120811
433 1 0.505499 0.626522 0.119468
437 1 0.625801 0.623177 0.1194
445 1 0.878178 0.622986 0.127094
418 1 0.0633638 0.684647 0.12102
422 1 0.191057 0.691532 0.128174
426 1 0.315378 0.687782 0.123923
430 1 0.440537 0.687102 0.1202
434 1 0.561684 0.689743 0.126566
438 1 0.68756 0.683219 0.121301
442 1 0.814034 0.691746 0.133376
446 1 0.940561 0.688161 0.128214
449 1 0.00159474 0.75401 0.124788
457 1 0.247379 0.753976 0.123582
461 1 0.370773 0.750799 0.125981
465 1 0.501866 0.751513 0.121045
469 1 0.62972 0.751664 0.122015
473 1 0.746639 0.744803 0.128656
477 1 0.87645 0.750747 0.129819
450 1 0.063862 0.811498 0.123308
454 1 0.18445 0.814186 0.116969
458 1 0.30816 0.809048 0.1269
462 1 0.436462 0.812122 0.122329
466 1 0.561509 0.813709 0.123057
470 1 0.687117 0.817901 0.126142
474 1 0.812546 0.805209 0.129429
478 1 0.93907 0.814519 0.124955
481 1 -0.00383043 0.877592 0.126972
485 1 0.119155 0.880601 0.118721
489 1 0.246976 0.875183 0.123779
493 1 0.373283 0.873738 0.121515
501 1 0.619224 0.876545 0.128767
505 1 0.754195 0.87507 0.125544
490 1 0.310374 0.935819 0.128842
494 1 0.437104 0.938113 0.12232
497 1 0.49681 0.870977 0.126112
498 1 0.5601 0.935492 0.120281
502 1 0.685898 0.931551 0.130072
506 1 0.808735 0.940751 0.120597
257 1 0.00163829 0.00330971 0.125036
482 1 0.0592728 0.939146 0.128489
486 1 0.183225 0.939784 0.12342
265 1 0.246541 0.00415558 0.126989
510 1 0.940528 0.936344 0.123099
263 1 0.18208 -0.000608178 0.189858
275 1 0.565806 0.00469582 0.189942
279 1 0.690909 0.000373821 0.180683
283 1 0.811256 0.00357257 0.191855
287 1 0.940444 0.992835 0.186228
260 1 0.00805216 0.0643117 0.185017
264 1 0.124079 0.0685686 0.185367
268 1 0.244705 0.066661 0.185417
272 1 0.377611 0.0609269 0.186239
276 1 0.505368 0.0589849 0.186624
280 1 0.62893 0.0635467 0.192718
284 1 0.750492 0.0622715 0.183965
288 1 0.882712 0.0580454 0.191224
291 1 0.0622361 0.126631 0.187886
295 1 0.184291 0.128772 0.182616
299 1 0.314504 0.120787 0.192285
303 1 0.444009 0.12424 0.187438
307 1 0.567281 0.118413 0.189814
311 1 0.693015 0.131049 0.189944
315 1 0.810417 0.123577 0.184148
319 1 0.937994 0.130896 0.191552
292 1 0.00448823 0.192502 0.183521
296 1 0.123473 0.189447 0.185963
300 1 0.250536 0.184736 0.184395
304 1 0.374216 0.184394 0.190606
308 1 0.50073 0.193061 0.192204
312 1 0.623349 0.192207 0.189086
316 1 0.754689 0.187273 0.186659
320 1 0.874445 0.193596 0.194332
323 1 0.0650332 0.253488 0.184767
327 1 0.193882 0.256366 0.189002
331 1 0.31588 0.242517 0.190042
335 1 0.436001 0.249164 0.182603
339 1 0.565177 0.25168 0.195054
343 1 0.693475 0.247712 0.181009
347 1 0.811339 0.251954 0.189722
351 1 0.935722 0.255194 0.189073
324 1 1.00237 0.316584 0.189218
328 1 0.123406 0.314084 0.190901
332 1 0.261968 0.307838 0.18546
336 1 0.37068 0.303079 0.187806
340 1 0.495525 0.31213 0.189351
344 1 0.627092 0.312737 0.193285
348 1 0.753142 0.31091 0.187484
352 1 0.882222 0.319344 0.189817
355 1 0.062499 0.372315 0.18721
359 1 0.183404 0.372845 0.186133
363 1 0.316427 0.371087 0.184866
367 1 0.433496 0.373475 0.187734
371 1 0.567434 0.378065 0.191727
375 1 0.689315 0.373463 0.186789
379 1 0.811565 0.376881 0.189938
383 1 0.943742 0.377728 0.186999
360 1 0.126165 0.43644 0.191237
364 1 0.25253 0.43219 0.185831
368 1 0.379136 0.434788 0.181031
372 1 0.49929 0.434193 0.188258
376 1 0.628472 0.44036 0.190164
380 1 0.745156 0.433725 0.191341
384 1 0.882962 0.440493 0.187725
356 1 1.00112 0.441757 0.183632
387 1 0.0622673 0.508258 0.185178
391 1 0.184379 0.503339 0.187719
395 1 0.317835 0.496888 0.188101
399 1 0.440717 0.499516 0.186746
403 1 0.560713 0.497026 0.186715
407 1 0.691959 0.501775 0.188301
411 1 0.817535 0.503761 0.188124
415 1 0.941692 0.503153 0.184613
392 1 0.123706 0.565882 0.189805
396 1 0.257798 0.5697 0.182629
400 1 0.378315 0.560546 0.188348
404 1 0.501495 0.560808 0.184505
408 1 0.630603 0.560332 0.181722
412 1 0.754264 0.562195 0.18796
416 1 0.880667 0.569106 0.190939
388 1 0.993937 0.568232 0.191698
419 1 0.0617395 0.627218 0.185529
423 1 0.190429 0.626616 0.18518
427 1 0.318312 0.623364 0.185862
431 1 0.44305 0.630141 0.181177
435 1 0.564291 0.619232 0.181578
439 1 0.687372 0.624867 0.182635
443 1 0.811316 0.625551 0.185712
447 1 0.935731 0.629627 0.189813
420 1 0.00239379 0.690979 0.190234
424 1 0.12448 0.685794 0.181437
428 1 0.251625 0.691171 0.187606
432 1 0.377821 0.685672 0.180477
436 1 0.499969 0.690238 0.18532
440 1 0.623375 0.679722 0.186351
444 1 0.748322 0.681521 0.190711
448 1 0.875612 0.684884 0.187036
451 1 0.0658733 0.753196 0.1842
455 1 0.18772 0.749942 0.18365
459 1 0.316197 0.75173 0.187789
463 1 0.435622 0.749019 0.193545
467 1 0.568259 0.752413 0.186401
471 1 0.689119 0.747918 0.187448
475 1 0.813207 0.746464 0.19485
479 1 0.938396 0.752344 0.187611
452 1 1.00112 0.813656 0.184569
456 1 0.127056 0.813904 0.179353
460 1 0.248009 0.815237 0.185125
464 1 0.378742 0.810879 0.187292
468 1 0.501025 0.806315 0.187013
472 1 0.628044 0.812522 0.186424
476 1 0.751877 0.81426 0.190867
480 1 0.877407 0.812099 0.188567
483 1 0.065324 0.872419 0.192038
487 1 0.181446 0.876784 0.178032
491 1 0.318874 0.871417 0.181581
495 1 0.439076 0.871643 0.184677
499 1 0.559888 0.874192 0.185827
503 1 0.684738 0.875158 0.190338
507 1 0.812345 0.880371 0.184951
511 1 0.940044 0.879572 0.191161
484 1 0.00104675 0.933613 0.18923
488 1 0.122978 0.940959 0.186251
492 1 0.247325 0.940244 0.192077
496 1 0.377638 0.931647 0.184338
500 1 0.503056 0.939707 0.179364
504 1 0.622513 0.938718 0.181399
259 1 0.0639945 0.999253 0.183571
267 1 0.312751 2.34999e-05 0.186635
271 1 0.435674 0.995225 0.189571
508 1 0.749975 0.934136 0.190103
512 1 0.871252 0.939862 0.183756
521 1 0.24183 0.0128769 0.249886
529 1 0.502214 0.00123457 0.255656
537 1 0.751748 1.00275 0.246391
541 1 0.877934 0.0027078 0.255369
514 1 0.0548981 0.0656119 0.254598
518 1 0.178481 0.0652633 0.247957
522 1 0.311256 0.062156 0.252546
526 1 0.439299 0.0673152 0.251381
530 1 0.564616 0.0627708 0.257256
534 1 0.69461 0.0652521 0.248456
538 1 0.816326 0.0646251 0.250695
542 1 0.946098 0.061892 0.253687
545 1 -0.00419812 0.12865 0.255259
549 1 0.122851 0.131211 0.252248
553 1 0.244535 0.119726 0.253712
557 1 0.375264 0.132276 0.252146
561 1 0.505753 0.125595 0.252503
565 1 0.628145 0.13091 0.248046
569 1 0.755542 0.121099 0.249529
573 1 0.878942 0.122836 0.250125
546 1 0.0595859 0.190502 0.252032
550 1 0.189284 0.189943 0.249049
554 1 0.3109 0.181778 0.248827
558 1 0.438984 0.190218 0.251743
562 1 0.565143 0.186943 0.250489
566 1 0.690694 0.194562 0.250195
570 1 0.810153 0.189209 0.252298
574 1 0.941548 0.194058 0.252277
577 1 0.000273647 0.249973 0.249542
581 1 0.127682 0.251125 0.247286
585 1 0.252528 0.257129 0.256532
589 1 0.380339 0.247638 0.252888
593 1 0.501874 0.249497 0.250519
597 1 0.628424 0.250095 0.255626
601 1 0.751492 0.249672 0.250283
605 1 0.875446 0.257427 0.250806
578 1 0.0593135 0.315602 0.249179
582 1 0.186949 0.314751 0.252682
586 1 0.315047 0.315363 0.255697
590 1 0.438791 0.310573 0.252022
594 1 0.567857 0.311773 0.253593
598 1 0.69206 0.305377 0.250367
602 1 0.812231 0.320827 0.246173
606 1 0.94024 0.313881 0.251966
613 1 0.12335 0.371616 0.25132
617 1 0.250017 0.369524 0.247266
621 1 0.374984 0.376461 0.252618
625 1 0.500552 0.372695 0.249745
629 1 0.625367 0.373378 0.253292
633 1 0.751988 0.37771 0.253771
637 1 0.877634 0.378365 0.254507
609 1 0.000211971 0.37545 0.244506
610 1 0.0614516 0.440694 0.250376
614 1 0.191285 0.439963 0.252457
618 1 0.313991 0.433789 0.244211
622 1 0.434175 0.439224 0.248732
626 1 0.56201 0.438765 0.250492
630 1 0.685685 0.442484 0.254438
634 1 0.819269 0.438454 0.247078
638 1 0.938939 0.436096 0.254788
645 1 0.119968 0.502583 0.247653
649 1 0.254373 0.500494 0.242087
653 1 0.376178 0.499936 0.252358
657 1 0.500122 0.500228 0.250009
661 1 0.628601 0.499759 0.253029
665 1 0.751683 0.497887 0.249658
669 1 0.875046 0.496838 0.252753
641 1 0.00274063 0.501926 0.250612
642 1 0.0585113 0.565901 0.245241
646 1 0.189561 0.562288 0.248688
650 1 0.316052 0.560885 0.249605
654 1 0.443845 0.558833 0.245609
658 1 0.565884 0.558279 0.247171
662 1 0.694368 0.562081 0.250028
666 1 0.818038 0.560642 0.250886
670 1 0.937989 0.566214 0.258532
677 1 0.128689 0.629242 0.24697
681 1 0.249765 0.624541 0.246971
685 1 0.380504 0.627184 0.250895
689 1 0.496101 0.624312 0.247367
693 1 0.629117 0.616063 0.254893
697 1 0.751904 0.622389 0.248
701 1 0.87523 0.629385 0.251555
673 1 0.0034546 0.62387 0.254035
674 1 0.0686278 0.685942 0.253072
678 1 0.192105 0.687087 0.249451
682 1 0.310528 0.685046 0.248589
686 1 0.440045 0.686842 0.251239
690 1 0.567364 0.684136 0.243257
694 1 0.683983 0.67966 0.25219
698 1 0.811314 0.684138 0.251179
702 1 0.939547 0.686736 0.249581
709 1 0.12676 0.747924 0.245824
713 1 0.252655 0.751594 0.248026
717 1 0.37455 0.741355 0.247353
721 1 0.503094 0.749396 0.250693
725 1 0.627083 0.750259 0.252286
729 1 0.750711 0.745267 0.250057
733 1 0.877039 0.7547 0.251121
705 1 1.00056 0.75199 0.25119
706 1 0.0621836 0.808948 0.249166
710 1 0.187427 0.809115 0.251824
714 1 0.30707 0.813744 0.248457
718 1 0.438823 0.815274 0.252565
722 1 0.56501 0.81082 0.249333
726 1 0.690829 0.811923 0.249367
730 1 0.818105 0.817851 0.247384
734 1 0.933 0.818955 0.254464
737 1 -0.001528 0.870176 0.24989
741 1 0.122734 0.866504 0.252116
745 1 0.245523 0.877465 0.246511
749 1 0.3778 0.870146 0.249463
753 1 0.498903 0.875219 0.246661
757 1 0.619577 0.881373 0.246774
765 1 0.874444 0.87589 0.247683
738 1 0.0631377 0.94419 0.248981
742 1 0.188591 0.942285 0.255439
746 1 0.315574 0.932146 0.242431
750 1 0.438947 0.938439 0.24341
754 1 0.55572 0.939192 0.242704
761 1 0.753008 0.87148 0.253463
766 1 0.931436 0.94278 0.25006
513 1 0.00297847 0.00270684 0.245183
517 1 0.117841 0.0068055 0.250157
525 1 0.38099 -0.00218941 0.250824
533 1 0.624449 0.995655 0.253764
758 1 0.690723 0.935345 0.246539
762 1 0.807329 0.936085 0.249104
516 1 1.00119 0.0643592 0.319343
524 1 0.250921 0.0608736 0.319701
535 1 0.691694 1.00021 0.309353
539 1 0.813336 1.00076 0.310635
543 1 0.937448 0.998561 0.313114
520 1 0.11878 0.0647491 0.313966
528 1 0.377168 0.0614135 0.313226
532 1 0.500697 0.0602098 0.316355
536 1 0.624708 0.0656365 0.319939
540 1 0.749789 0.0603711 0.312014
544 1 0.877923 0.063677 0.313136
547 1 0.0602408 0.125624 0.313792
551 1 0.183067 0.123322 0.310615
555 1 0.310252 0.119038 0.312964
559 1 0.439419 0.124033 0.315685
563 1 0.565736 0.126395 0.316411
567 1 0.688273 0.126147 0.309968
571 1 0.810539 0.130711 0.314458
575 1 0.934141 0.1246 0.316092
548 1 0.998907 0.192142 0.31663
552 1 0.126029 0.186521 0.316411
556 1 0.248582 0.184697 0.314049
560 1 0.376493 0.188486 0.315183
564 1 0.502912 0.181665 0.321081
568 1 0.625905 0.186249 0.314849
572 1 0.745739 0.189088 0.313747
576 1 0.877329 0.186856 0.310259
579 1 0.062379 0.253534 0.316445
583 1 0.182431 0.251987 0.311192
587 1 0.311451 0.246168 0.316585
591 1 0.444547 0.246386 0.31946
595 1 0.566868 0.247591 0.314028
599 1 0.689758 0.25302 0.314451
603 1 0.814323 0.255194 0.31101
607 1 0.939053 0.25503 0.312941
580 1 0.994121 0.316677 0.317425
584 1 0.125386 0.310615 0.313701
588 1 0.251622 0.316826 0.314034
592 1 0.379463 0.309132 0.312278
596 1 0.501913 0.307138 0.3139
600 1 0.624491 0.313269 0.31538
604 1 0.755307 0.314167 0.310665
608 1 0.87794 0.317158 0.31275
611 1 0.0575338 0.378819 0.313372
615 1 0.190931 0.381657 0.312838
619 1 0.311743 0.377876 0.312158
623 1 0.440231 0.374902 0.30961
627 1 0.562853 0.380313 0.309698
631 1 0.689929 0.375617 0.313226
635 1 0.816259 0.376181 0.317557
639 1 0.936292 0.376871 0.31585
616 1 0.126306 0.434718 0.314223
620 1 0.252899 0.447508 0.309019
624 1 0.376417 0.435067 0.314514
628 1 0.501179 0.434241 0.314253
632 1 0.627689 0.440359 0.312172
636 1 0.752486 0.433284 0.316761
640 1 0.872005 0.440156 0.312184
612 1 -0.00107602 0.442485 0.30962
643 1 0.0618844 0.502446 0.311125
647 1 0.18941 0.502515 0.314996
651 1 0.315311 0.50435 0.315698
655 1 0.438356 0.497113 0.314057
659 1 0.556023 0.501838 0.31383
663 1 0.689569 0.499191 0.315375
667 1 0.812038 0.497822 0.317728
671 1 0.937506 0.497959 0.311086
648 1 0.124306 0.561943 0.306947
652 1 0.255529 0.566203 0.308989
656 1 0.378639 0.558522 0.313137
660 1 0.49794 0.561287 0.308121
664 1 0.626124 0.555526 0.316519
668 1 0.753017 0.562538 0.311157
672 1 0.871463 0.564643 0.317193
644 1 1.00145 0.565732 0.311199
675 1 0.0704056 0.625618 0.308847
679 1 0.184478 0.623755 0.314022
683 1 0.316 0.624776 0.312585
687 1 0.437236 0.624625 0.316168
691 1 0.563208 0.625628 0.308436
695 1 0.689053 0.619448 0.317538
699 1 0.815994 0.627962 0.310402
703 1 0.939226 0.628728 0.308795
680 1 0.129733 0.685879 0.310363
684 1 0.24737 0.679279 0.312945
688 1 0.3735 0.688746 0.314738
692 1 0.500331 0.684941 0.308373
696 1 0.628289 0.685034 0.313527
700 1 0.747588 0.684562 0.30826
704 1 0.874414 0.69461 0.312626
676 1 0.00350262 0.690557 0.312081
707 1 0.0661013 0.750268 0.31159
711 1 0.187123 0.745401 0.312195
715 1 0.313503 0.74645 0.313612
719 1 0.434557 0.749208 0.308632
723 1 0.567561 0.754122 0.312202
727 1 0.688258 0.750361 0.309045
731 1 0.81227 0.750114 0.306709
735 1 0.940499 0.75245 0.315849
712 1 0.128352 0.810439 0.309702
716 1 0.25048 0.811476 0.312089
720 1 0.374366 0.807616 0.314762
724 1 0.500811 0.813181 0.315912
728 1 0.632806 0.814433 0.313145
732 1 0.754123 0.813778 0.312181
736 1 0.87103 0.817068 0.310854
708 1 0.997885 0.809978 0.312697
739 1 0.0638732 0.873409 0.313908
743 1 0.187097 0.873752 0.30747
747 1 0.31302 0.869982 0.318631
751 1 0.438895 0.874124 0.315654
755 1 0.564767 0.869056 0.311748
759 1 0.688412 0.875173 0.315244
767 1 0.940793 0.870794 0.316193
744 1 0.126942 0.937875 0.311102
748 1 0.25014 0.934623 0.312037
752 1 0.372149 0.933955 0.310032
756 1 0.498085 0.936748 0.311632
764 1 0.750752 0.936777 0.311644
763 1 0.815556 0.880211 0.310932
768 1 0.874652 0.934549 0.309684
740 1 0.997909 0.936061 0.303941
515 1 0.0533317 3.81362e-05 0.312911
519 1 0.189997 0.00157389 0.313219
523 1 0.309916 0.999267 0.30353
527 1 0.441057 0.998405 0.314411
531 1 0.569079 0.998119 0.315161
760 1 0.624113 0.931686 0.312083
769 1 1.00104 -0.000126218 0.38068
770 1 0.06542 0.0601848 0.378884
781 1 0.37955 0.994649 0.369384
786 1 0.558546 0.0641658 0.375428
790 1 0.68801 0.0680452 0.377992
774 1 0.18555 0.0662477 0.376044
778 1 0.319857 0.0554184 0.376312
782 1 0.438364 0.0675465 0.379606
794 1 0.808368 0.0638633 0.372306
798 1 0.936696 0.0602901 0.375355
805 1 0.123201 0.124574 0.378463
809 1 0.246903 0.120719 0.378812
813 1 0.371502 0.122311 0.372499
817 1 0.500053 0.126654 0.386418
821 1 0.627044 0.118747 0.380938
825 1 0.752112 0.128622 0.374685
829 1 0.87246 0.128474 0.373649
801 1 -0.000952675 0.129951 0.375013
802 1 0.0667804 0.189014 0.373807
806 1 0.186034 0.189658 0.374013
810 1 0.307475 0.180676 0.369762
814 1 0.437079 0.183284 0.373518
818 1 0.566586 0.181266 0.377745
822 1 0.686907 0.187312 0.377756
826 1 0.810616 0.193817 0.376915
830 1 0.938757 0.189356 0.376563
833 1 0.992942 0.249476 0.373861
837 1 0.131246 0.256751 0.376676
841 1 0.24336 0.25199 0.373651
845 1 0.381598 0.248988 0.378011
849 1 0.503662 0.248821 0.379898
853 1 0.625661 0.253859 0.381244
857 1 0.750475 0.259368 0.379801
861 1 0.873338 0.257214 0.374775
834 1 0.0598732 0.322061 0.374228
838 1 0.189724 0.316085 0.370353
842 1 0.314802 0.306203 0.372478
846 1 0.439594 0.310889 0.374492
850 1 0.565182 0.312612 0.374017
854 1 0.690053 0.323177 0.374389
858 1 0.813817 0.316439 0.373638
862 1 0.933366 0.316672 0.379474
865 1 0.996108 0.379631 0.377646
869 1 0.120569 0.374298 0.372901
873 1 0.248644 0.37919 0.374661
877 1 0.375524 0.3712 0.37535
881 1 0.504649 0.370246 0.373411
885 1 0.628321 0.381422 0.375244
889 1 0.753484 0.373476 0.376872
893 1 0.873066 0.376848 0.380375
866 1 0.0600942 0.441151 0.377122
870 1 0.185422 0.44001 0.379079
874 1 0.309264 0.438513 0.370815
878 1 0.445759 0.431321 0.376307
882 1 0.565309 0.438308 0.376394
886 1 0.690858 0.432967 0.375719
890 1 0.81323 0.441094 0.379969
894 1 0.937748 0.44152 0.373298
901 1 0.123295 0.497182 0.372791
905 1 0.250627 0.505885 0.377102
909 1 0.381648 0.495523 0.375638
913 1 0.500542 0.497874 0.374534
917 1 0.62437 0.49462 0.373169
921 1 0.750468 0.498269 0.38279
925 1 0.872285 0.502156 0.380886
897 1 1.00186 0.502385 0.375208
898 1 0.0599302 0.56661 0.371551
902 1 0.184712 0.56005 0.373576
906 1 0.31411 0.564964 0.37861
910 1 0.438302 0.558781 0.373154
914 1 0.562926 0.557111 0.377806
918 1 0.691857 0.563158 0.382131
922 1 0.811024 0.562791 0.373878
926 1 0.936265 0.561147 0.372234
933 1 0.125942 0.61951 0.377418
937 1 0.246018 0.61991 0.37717
941 1 0.374802 0.62143 0.379872
945 1 0.502488 0.622296 0.370365
949 1 0.626371 0.617585 0.375525
953 1 0.754379 0.626596 0.374323
957 1 0.875956 0.62343 0.374199
929 1 -0.00109708 0.632105 0.373627
930 1 0.0644434 0.685419 0.371944
934 1 0.188333 0.685123 0.378831
938 1 0.311299 0.679899 0.372671
942 1 0.432195 0.683648 0.373716
946 1 0.562468 0.686759 0.369342
950 1 0.684958 0.679305 0.375199
954 1 0.812932 0.681964 0.384196
958 1 0.936513 0.684762 0.368838
961 1 0.00212886 0.751729 0.379099
965 1 0.126038 0.744826 0.372285
969 1 0.253049 0.741858 0.373731
973 1 0.368608 0.745605 0.374736
977 1 0.493977 0.745729 0.36578
981 1 0.628583 0.750895 0.375453
985 1 0.747945 0.746232 0.372363
989 1 0.876308 0.752585 0.371524
962 1 0.0611857 0.811222 0.375172
966 1 0.178862 0.808515 0.377627
970 1 0.30984 0.804491 0.376606
974 1 0.436592 0.805159 0.376175
978 1 0.566786 0.806924 0.377427
982 1 0.694317 0.812508 0.372437
986 1 0.807362 0.808422 0.37893
990 1 0.935877 0.813221 0.382823
997 1 0.125726 0.875326 0.368638
1001 1 0.244599 0.86428 0.374768
1005 1 0.376639 0.87388 0.369861
1009 1 0.502198 0.877728 0.376636
1013 1 0.626895 0.874445 0.378201
1017 1 0.751056 0.873958 0.37454
1021 1 0.871666 0.87282 0.37473
993 1 0.00241175 0.871733 0.375031
994 1 0.0566694 0.942801 0.373508
998 1 0.189065 0.934839 0.370907
1002 1 0.311324 0.939631 0.371955
1006 1 0.435683 0.935368 0.37209
1010 1 0.564521 0.936994 0.374561
1014 1 0.690724 0.935252 0.375248
1018 1 0.812748 0.944304 0.375577
1022 1 0.941648 0.936838 0.377769
773 1 0.125043 1.00175 0.373537
777 1 0.250643 0.998682 0.375214
785 1 0.500825 0.996297 0.372232
789 1 0.628969 0.9988 0.375851
793 1 0.7471 -0.000437083 0.377632
797 1 0.879539 0.997947 0.378397
775 1 0.186689 0.000399837 0.435021
784 1 0.379648 0.0628521 0.441256
788 1 0.498271 0.0560165 0.434562
791 1 0.687631 0.998298 0.439381
796 1 0.753082 0.0669566 0.441236
800 1 0.873987 0.0616917 0.435749
776 1 0.129002 0.0645806 0.435585
780 1 0.250841 0.0576119 0.434095
819 1 0.560767 0.129431 0.445014
792 1 0.628605 0.0627992 0.440364
772 1 0.99515 0.0675055 0.43526
803 1 0.0601895 0.127745 0.437442
807 1 0.18606 0.13025 0.43625
811 1 0.31867 0.125336 0.441321
815 1 0.4336 0.128267 0.442121
823 1 0.691171 0.124662 0.438882
827 1 0.816841 0.123696 0.440219
831 1 0.932178 0.124134 0.439112
804 1 -0.00208594 0.190893 0.440176
808 1 0.127858 0.1881 0.439014
812 1 0.250151 0.189704 0.42927
816 1 0.37607 0.182593 0.434229
820 1 0.498385 0.189501 0.442107
824 1 0.626445 0.191679 0.440234
828 1 0.750067 0.190946 0.43899
832 1 0.879683 0.18484 0.438906
835 1 0.0575115 0.254688 0.429641
839 1 0.188522 0.248092 0.437472
843 1 0.313256 0.251757 0.431781
847 1 0.438893 0.246567 0.441955
851 1 0.565959 0.251941 0.444732
855 1 0.691345 0.253906 0.439752
859 1 0.815107 0.250884 0.439457
863 1 0.932631 0.248294 0.440181
836 1 1.00128 0.319076 0.437072
840 1 0.119512 0.31688 0.435828
844 1 0.251893 0.314912 0.430716
848 1 0.379274 0.311324 0.437249
852 1 0.506111 0.308841 0.444275
856 1 0.623701 0.310817 0.442082
860 1 0.756919 0.318681 0.444291
864 1 0.87571 0.315723 0.438616
867 1 0.062448 0.381156 0.439327
871 1 0.189844 0.372637 0.439095
875 1 0.314146 0.371777 0.431835
879 1 0.443458 0.371799 0.432693
883 1 0.561799 0.373718 0.435705
887 1 0.690009 0.371647 0.444749
891 1 0.817569 0.374834 0.441102
895 1 0.941199 0.3816 0.441873
872 1 0.125317 0.437728 0.439992
876 1 0.253925 0.438122 0.437368
880 1 0.377602 0.432392 0.43851
884 1 0.504097 0.433746 0.438515
888 1 0.621807 0.433932 0.438124
892 1 0.747938 0.433984 0.440167
896 1 0.878997 0.44095 0.439786
868 1 0.00740307 0.439807 0.438763
899 1 0.0641933 0.502558 0.440976
903 1 0.1824 0.500798 0.432967
907 1 0.317983 0.495717 0.433434
911 1 0.443868 0.492078 0.433839
915 1 0.564742 0.494855 0.440121
919 1 0.684916 0.492762 0.435831
923 1 0.816921 0.503561 0.440982
927 1 0.939784 0.503737 0.435679
904 1 0.123468 0.562094 0.437843
908 1 0.246933 0.562118 0.441914