ITEM: TIMESTEP
100000
ITEM: NUMBER OF ATOMS
2048
ITEM: BOX BOUNDS pp pp pp
0.0000000000000000e+00 1.3153131063095840e+01
0.0000000000000000e+00 1.3153131063095840e+01
0.0000000000000000e+00 1.3153131063095840e+01
ITEM: ATOMS id type xs ys zs
1854 1 0.929276 0.00144479 0.77068
322 1 0.0639964 0.042241 0.946602
1733 1 0.0910436 0.970573 0.87773
1979 1 0.369467 0.937145 0.912044
1406 1 0.566039 0.0646481 0.150899
800 1 0.605642 0.948366 0.0938975
1470 1 0.0174051 0.0340022 0.826302
294 1 0.824936 0.121433 0.977427
135 1 0.00354468 0.153048 0.974435
901 1 0.998951 0.129836 0.157007
1804 1 0.209339 0.322242 0.996018
1598 1 0.529117 0.13325 0.210387
784 1 0.946848 0.910998 0.0117393
393 1 0.988191 0.0084277 0.887973
108 1 0.892764 0.065928 0.0696546
346 1 0.173532 0.21284 0.0158207
1000 1 0.68081 0.175959 0.241071
1331 1 0.893942 0.148383 0.128623
1213 1 0.797923 0.868975 0.123886
653 1 0.138977 0.147935 0.0621709
852 1 0.919285 0.196872 0.958205
235 1 0.0571316 0.274347 0.939152
218 1 0.186405 0.0508391 0.149561
1530 1 0.603514 0.284033 0.170668
646 1 0.914492 0.00455703 0.218884
1896 1 0.677023 0.183257 0.159273
706 1 0.939971 0.26368 0.108287
625 1 0.425867 0.23707 0.889948
1365 1 0.714137 0.32269 0.965117
1629 1 0.747335 0.25261 0.991965
1953 1 0.120916 0.101819 0.131361
1497 1 0.510057 0.0558901 0.0853975
894 1 0.535965 0.194565 0.249032
1097 1 0.716583 0.253547 0.081594
755 1 0.844867 0.354126 0.985392
73 1 0.804646 0.27884 0.932953
2029 1 0.971225 0.38283 0.903605
1648 1 0.293351 0.239705 0.175144
1080 1 0.359142 0.400064 0.00960482
123 1 0.561113 0.361003 0.00502444
1794 1 0.477833 0.54374 0.261211
915 1 0.950679 0.320586 0.849663
1127 1 0.059368 0.380884 0.937366
595 1 0.425611 0.176604 0.838614
1173 1 0.671427 0.326632 0.905449
1738 1 0.88949 0.211373 0.0815618
1971 1 0.0367369 0.436548 0.897286
1862 1 0.25427 0.507649 0.0673598
1491 1 0.236402 0.369974 0.0509072
1789 1 0.573619 0.584803 0.0307599
281 1 0.752812 0.29347 0.151389
172 1 0.93847 0.477067 0.14111
1388 1 0.427478 0.432121 0.00632032
1853 1 0.683466 0.464514 0.0706339
1340 1 0.963292 0.621166 0.0857161
772 1 0.267617 0.722728 0.943004
1486 1 0.540284 0.663549 0.0081752
1960 1 0.771041 0.715376 0.0135833
319 1 0.671129 0.311398 0.11408
811 1 0.840183 0.571654 0.955191
1064 1 0.209372 0.509858 0.98197
749 1 0.211809 0.400661 0.21806
648 1 0.31424 0.483999 0.0227891
647 1 0.563204 0.466628 0.23571
280 1 0.669768 0.712113 0.865893
585 1 0.650213 0.430755 0.00823654
1815 1 0.941863 0.740089 0.992523
1705 1 0.51863 0.433516 0.930896
1070 1 0.426959 0.543259 0.0643119
758 1 0.579611 0.74888 0.915718
458 1 0.712341 0.671211 0.247207
1215 1 0.888874 0.672768 0.0220369
623 1 0.237004 0.954116 0.976609
1674 1 0.442397 0.591923 0.864912
695 1 0.327534 0.698844 0.0402069
115 1 0.658741 0.691294 0.141398
744 1 0.453642 0.799081 0.131107
424 1 0.9717 0.794224 0.899708
1601 1 0.0573353 0.800816 0.0180185
409 1 0.345513 0.826312 0.0501856
141 1 0.485114 0.649806 0.89569
378 1 0.65362 0.915868 0.936679
1125 1 0.0651047 0.243344 0.855306
1455 1 0.183288 0.0883498 0.0707897
1152 1 0.399826 0.741946 0.0371233
1711 1 0.708694 0.774167 0.775409
1449 1 0.939524 0.818388 0.108969
1052 1 0.972527 0.821813 0.00553516
230 1 0.24321 0.0518491 0.205189
690 1 0.121822 0.95381 0.775521
989 1 0.109805 0.011746 0.0871616
668 1 0.37497 0.813647 0.127886
1837 1 0.562792 0.989425 0.794228
277 1 0.537284 0.91875 0.977366
291 1 0.737212 0.85868 0.934483
1002 1 0.0854738 0.967292 0.966386
157 1 0.485893 0.952406 0.0430714
463 1 0.612555 0.0355665 0.0237991
1157 1 0.837532 0.0148158 0.110292
684 1 0.0154223 0.815154 0.151813
1377 1 0.919091 0.978575 0.0796005
1827 1 0.106381 0.0777999 0.0563207
1516 1 0.48367 0.942777 0.161594
1245 1 0.332056 0.0373996 0.0382035
861 1 0.827534 0.950089 0.790807
900 1 0.00189194 0.980276 0.971825
248 1 0.0604037 0.209284 0.990131
2007 1 0.596875 0.177179 0.199498
186 1 0.864187 0.896414 0.973835
828 1 1.00123 0.963041 0.0457589
159 1 0.138339 0.0582417 0.315931
887 1 0.255856 0.135558 0.341642
385 1 0.324046 0.113989 0.0999651
402 1 0.527829 0.976509 0.113107
1115 1 0.847954 0.195956 0.96845
179 1 0.96152 0.0662143 0.106088
456 1 0.721787 0.0202911 0.158123
330 1 0.419202 0.258464 0.196234
876 1 0.623962 0.257211 0.243827
371 1 0.576823 0.126535 0.103272
843 1 0.757188 0.124834 0.102046
1882 1 0.953313 0.144459 0.917999
1471 1 0.201112 0.155253 0.126336
700 1 0.472127 0.338571 0.98789
1761 1 0.674189 0.256044 0.184348
616 1 0.841034 0.282137 0.00655943
542 1 0.933854 0.0960143 0.167335
1870 1 0.0475911 0.286411 0.160174
1931 1 0.990986 0.221517 0.950641
131 1 0.886868 0.434153 0.104324
1424 1 0.132012 0.351682 0.9444
661 1 0.598338 0.386714 0.243636
1196 1 0.406494 0.309658 0.99203
674 1 0.687518 0.138692 0.0780858
1902 1 0.579102 0.258914 0.307413
1995 1 0.626518 0.452722 0.288662
361 1 0.589051 0.323194 0.0653622
36 1 0.589174 0.4962 0.175601
667 1 0.829559 0.175999 0.0438086
400 1 0.937902 0.422074 0.965148
140 1 0.986827 0.492189 0.937388
1393 1 0.0368397 0.499911 0.853517
1484 1 0.149268 0.543868 0.112835
1597 1 0.180848 0.416531 0.288571
2 1 0.311728 0.28182 0.0364996
1591 1 0.526568 0.381733 0.102503
750 1 0.671042 0.227047 0.922435
851 1 0.868579 0.287832 0.0779423
1214 1 0.0767001 0.327287 0.0193448
1027 1 0.578581 0.582635 0.177646
93 1 0.862976 0.418513 0.948445
1313 1 0.0244083 0.555233 0.91405
716 1 0.507347 0.558079 0.0508434
2044 1 0.608105 0.627311 0.248741
978 1 0.648782 0.379405 0.0630204
1753 1 0.121743 0.768995 0.936591
1723 1 0.123803 0.768652 0.024607
423 1 0.14885 0.541545 0.92397
804 1 0.307654 0.528784 0.947908
1479 1 0.517316 0.609728 0.965733
1582 1 0.603645 0.360368 0.126705
1167 1 0.836529 0.727479 0.0630348
16 1 0.905465 0.74033 0.111002
1351 1 0.146339 0.461719 0.0137317
1234 1 0.352001 0.894532 0.0970251
785 1 0.720696 0.857439 0.0730527
1172 1 0.681215 0.726814 0.99739
1807 1 0.786085 0.812106 0.993403
1736 1 0.125295 0.913598 0.101601
741 1 0.28441 0.649933 0.989892
1771 1 0.23485 0.958097 0.294019
1451 1 0.419121 0.591438 0.00174004
1616 1 0.402954 0.979497 0.163547
387 1 0.599367 0.647384 0.324621
1803 1 0.811664 0.828411 0.901278
692 1 0.871009 0.80948 0.975982
1614 1 0.424531 0.694433 0.0931675
703 1 0.547402 0.793451 0.0433585
221 1 0.540597 0.561261 0.119241
1744 1 0.000313152 0.7565 0.0337104
1588 1 0.887115 0.85753 0.0555406
835 1 0.180935 0.0144747 0.0770983
2020 1 0.319848 0.96459 0.0613901
897 1 0.197542 0.810532 0.275048
2005 1 0.820941 0.794457 0.169659
1469 1 0.153622 0.936372 0.990428
514 1 0.126698 0.846145 0.146612
525 1 0.390699 0.0684735 0.0892447
528 1 0.713168 0.803519 0.985834
1111 1 0.0335893 0.0284934 0.0405389
838 1 0.248012 0.0417564 0.890879
1963 1 0.810232 0.986089 0.183204
1065 1 0.528816 0.803788 0.119563
482 1 0.0437857 0.821244 0.947527
996 1 0.920003 0.783575 0.173653
938 1 0.247646 0.992494 0.0392783
1977 1 0.545354 0.0044968 0.0397871
1084 1 0.770144 0.920379 0.731193
520 1 0.949303 0.899277 0.0893256
1965 1 0.144897 0.927565 0.377338
1590 1 0.134336 0.176045 0.130955
1482 1 0.460569 0.0623651 0.139661
201 1 0.427583 0.950086 0.992115
995 1 0.501206 0.134067 0.137212
1851 1 0.540531 0.932868 0.288103
261 1 0.66824 0.901198 0.113598
1612 1 0.00222885 0.925268 0.296003
227 1 0.0263582 0.214925 0.0942653
1032 1 0.647805 0.840899 0.979706
431 1 0.967335 0.219326 0.270413
184 1 0.223513 0.154537 0.0315446
1932 1 0.499317 0.0702016 0.240292
1447 1 0.421457 0.183634 0.201042
1739 1 0.619822 0.193954 0.283308
1134 1 0.0576703 0.0539028 0.308238
762 1 0.355498 0.180609 0.143353
908 1 0.453479 0.260321 0.38875
6 1 0.554014 0.252473 0.211841
1014 1 0.671657 0.0592482 0.207119
1796 1 0.790342 0.0680285 0.142097
70 1 0.8737 0.237552 0.155705
917 1 0.0453944 0.205642 0.168379
1297 1 0.155988 0.284865 0.045133
1133 1 0.470461 0.327601 0.422082
1310 1 0.850681 0.113555 0.19908
173 1 0.893325 0.336553 0.162451
1699 1 0.973546 0.396041 0.124974
735 1 0.322565 0.205116 0.0186255
401 1 0.447012 0.341278 0.17178
540 1 0.740048 0.205827 0.132282
1276 1 0.296176 0.423694 0.0515209
1385 1 0.380192 0.328945 0.0605817
1702 1 0.653126 0.471024 0.36948
754 1 0.765285 0.0621546 0.209554
449 1 0.843789 0.417051 0.205655
435 1 0.0212871 0.464078 0.118536
1243 1 0.209904 0.388344 0.145337
363 1 0.211249 0.553348 0.158104
430 1 0.393203 0.472044 0.0768377
1176 1 0.745677 0.375791 0.186847
1834 1 0.789176 0.491749 0.18927
701 1 0.866661 0.483982 0.157707
214 1 0.236142 0.469967 0.183947
1316 1 0.552328 0.252355 0.114775
1814 1 0.453548 0.354168 0.053839
416 1 0.51894 0.511118 0.201957
1878 1 0.947148 0.43885 0.0548507
82 1 0.201457 0.582253 0.952055
1904 1 0.101467 0.401175 0.194246
491 1 0.485421 0.36789 0.886878
1830 1 0.416758 0.620256 0.080242
308 1 0.658575 0.494291 0.237271
1110 1 0.812428 0.541643 0.125813
395 1 0.0269689 0.567194 0.161076
1250 1 0.153315 0.518246 0.183025
959 1 0.950333 0.699757 0.0554946
1494 1 0.801734 0.258006 0.0848161
359 1 0.856039 0.505651 0.229856
1991 1 0.761668 0.427665 0.0710097
1685 1 0.358611 0.55142 0.147408
2019 1 0.461233 0.453889 0.0686338
94 1 0.571545 0.421628 0.0533013
962 1 0.47111 0.510745 0.115583
1943 1 0.270561 0.592768 0.132118
1639 1 0.579364 0.854213 0.995339
8 1 0.62117 0.222821 0.116486
1029 1 0.925169 0.682426 0.951632
1057 1 0.325513 0.580102 0.0763479
1595 1 0.242759 0.71209 0.0208847
174 1 0.735845 0.683833 0.178926
513 1 0.180359 0.531932 0.0459421
899 1 0.365446 0.796588 0.244945
425 1 0.663219 0.720881 0.210528
911 1 0.898624 0.78539 0.0393103
1218 1 0.971161 0.515327 0.0860995
1241 1 0.412697 0.831034 0.194026
310 1 0.724502 0.596375 0.195059
1199 1 0.24776 0.83958 0.0241568
56 1 0.383194 0.890357 0.274641
2042 1 0.668679 0.792841 0.900931
618 1 0.716901 0.854159 0.776471
1422 1 0.0738039 0.915757 0.258153
1082 1 0.0935252 0.140544 0.99448
229 1 0.200473 0.774886 0.998028
485 1 0.353492 0.739486 0.102826
815 1 0.415777 0.930953 0.214655
122 1 0.665659 0.796078 0.043974
657 1 0.884466 0.929132 0.131856
1716 1 0.739557 0.879109 0.00399885
258 1 0.756591 0.804997 0.130594
827 1 0.00609788 0.879948 0.201992
1417 1 0.174562 0.0271011 0.251515
1822 1 0.196069 0.110081 0.188094
222 1 0.271513 0.00682553 0.14131
1430 1 0.465491 0.89468 0.30575
990 1 0.740458 0.917454 0.127657
1816 1 0.663993 0.615995 0.912199
564 1 0.338951 0.0350831 0.126949
1899 1 0.495584 0.984581 0.966426
1022 1 0.042782 0.10638 0.883225
1028 1 0.189377 0.870657 0.1164
532 1 0.0698358 0.152828 0.0965371
1860 1 0.258977 0.0782033 0.112337
2001 1 0.610934 0.99364 0.145341
1446 1 0.83608 0.864354 0.27524
608 1 0.937101 0.778481 0.301669
924 1 0.209176 0.212587 0.181832
829 1 0.202443 0.895477 0.0437126
10 1 0.996622 0.830528 0.274714
47 1 0.109424 0.090799 0.254881
533 1 0.143018 0.18205 0.209131
1247 1 0.327105 0.992181 0.419288
1261 1 0.275774 0.169575 0.278372
121 1 0.820208 0.0395104 0.339464
1536 1 0.846154 0.0968497 0.284446
421 1 0.557026 0.0390509 0.973603
873 1 0.990758 0.0116722 0.256908
1483 1 0.132178 0.278413 0.204143
419 1 0.495909 0.189772 0.0805583
2028 1 0.311111 0.244581 0.293815
1670 1 0.98923 0.047612 0.194055
29 1 0.898374 0.178508 0.199735
709 1 0.0608132 0.466682 0.204825
968 1 0.760357 0.0624959 0.289741
893 1 0.65654 0.989904 0.201844
1227 1 0.818513 0.0352819 0.245709
2017 1 0.248858 0.239107 0.24419
1012 1 0.616185 0.345753 0.371443
1547 1 0.867804 0.281733 0.217782
410 1 0.16242 0.358458 0.0901866
1311 1 0.503369 0.19753 0.170845
313 1 0.569956 0.140581 0.290666
15 1 0.0110975 0.326315 0.263722
574 1 0.225156 0.307276 0.174968
1934 1 0.330485 0.414929 0.14848
347 1 0.455606 0.373629 0.259448
453 1 0.337991 0.335138 0.154825
1926 1 0.486047 0.300127 0.289048
1782 1 0.0207365 0.248507 0.228714
1280 1 0.977251 0.322192 0.104814
1808 1 0.955129 0.345772 0.031357
1863 1 0.294494 0.513851 0.166941
1850 1 0.60336 0.533126 0.0927299
1344 1 0.991716 0.398516 0.242117
1525 1 0.683821 0.401478 0.345431
1921 1 0.69299 0.275766 0.252825
1117 1 0.816928 0.203029 0.299389
853 1 -7.8465e-05 0.35661 0.184778
481 1 0.234405 0.440592 0.00832388
349 1 0.534545 0.548495 0.390786
1929 1 0.512059 0.42966 0.391605
1580 1 0.73742 0.548233 0.295043
1696 1 0.766405 0.269434 0.254314
582 1 0.944936 0.46859 0.244729
390 1 0.933995 0.552245 0.263605
1219 1 0.473066 0.648935 0.148154
1185 1 0.721657 0.54079 0.144875
738 1 0.967952 0.611624 0.00439142
1751 1 0.020222 0.365988 0.0682638
656 1 0.863481 0.472998 0.0166159
134 1 0.739888 0.51612 0.0719216
806 1 0.894465 0.664689 0.095943
415 1 0.226808 0.6611 0.938292
1638 1 0.480735 0.730024 0.132555
1254 1 0.54653 0.66358 0.202912
1328 1 0.618859 0.860643 0.0644184
1891 1 0.677388 0.662618 0.520872
1060 1 0.736995 0.773938 0.0488373
920 1 0.975626 0.685623 0.175445
1919 1 0.0251641 0.644943 0.128943
1137 1 0.816653 0.486848 0.0748775
287 1 0.17576 0.768495 0.0749969
723 1 0.236459 0.956341 0.100107
1576 1 0.0327127 0.733034 0.190952
1593 1 0.395946 0.691554 0.335028
1988 1 0.474718 0.65205 0.224183
1981 1 0.504758 0.723798 0.224751
1568 1 0.452144 0.61748 0.286321
171 1 0.723851 0.707165 0.0958682
1717 1 0.801475 0.808745 0.0649729
1146 1 0.923543 0.564372 0.114648
1585 1 0.149134 0.0409528 0.933469
154 1 0.305229 0.820918 0.110949
742 1 0.756987 0.752415 0.199006
1856 1 0.857687 0.820082 0.113442
1653 1 0.0840848 0.942336 0.0436168
1124 1 0.103599 0.715313 0.22569
1265 1 0.173099 0.96803 0.143903
340 1 0.0364138 0.0021902 0.121616
436 1 0.608284 0.899025 0.332344
1437 1 0.701293 0.0739724 0.100703
947 1 0.857859 0.709848 0.157985
733 1 0.260905 0.92712 0.387464
1049 1 0.235183 0.891143 0.260431
2046 1 0.421693 0.885768 0.143696
348 1 0.536603 0.898054 0.0503663
1158 1 0.714371 0.858666 0.181585
1156 1 0.948417 0.995465 0.316011
1734 1 0.794221 0.733879 0.133067
244 1 0.0348854 0.0898831 0.250667
1686 1 0.116612 0.0535827 0.188115
120 1 0.510859 0.984595 0.22069
79 1 0.468879 0.8705 0.0836526
1191 1 0.819019 0.169677 0.138617
2010 1 0.780995 0.822078 0.364756
343 1 0.966347 0.0311363 0.00832108
1294 1 0.396379 0.982183 0.402235
1741 1 0.356184 0.96379 0.249344
1197 1 0.87866 0.986256 0.284152
1828 1 0.937399 0.0812197 0.356735
1338 1 0.23315 0.0272776 0.319462
1994 1 0.297841 0.179964 0.0879354
117 1 0.607145 0.112715 0.235949
1560 1 0.813261 0.948447 0.0721721
1660 1 0.0990059 0.963249 0.157145
193 1 0.0761901 0.328382 0.213919
702 1 0.362243 0.224892 0.227241
918 1 0.548386 0.0583422 0.381466
740 1 0.971897 0.205421 0.164678
895 1 0.712883 0.00367952 0.245855
289 1 0.300745 0.105784 0.167965
165 1 0.659092 0.136492 0.309678
1079 1 0.93718 0.923732 0.354149
1397 1 0.960475 0.285695 0.180922
317 1 0.95732 0.142804 0.22708
1657 1 0.285265 0.0822005 0.281257
974 1 0.416774 0.256034 0.289445
465 1 0.703159 0.0948916 0.35326
212 1 0.91002 0.073281 0.254248
1404 1 0.909873 0.363828 0.0926109
935 1 0.0797437 0.186503 0.365108
547 1 0.0375235 0.163234 0.304215
1296 1 0.242383 0.0801708 0.454543
1727 1 0.33622 0.268569 0.110394
1583 1 0.317349 0.179376 0.381536
707 1 0.574579 0.340848 0.506922
321 1 0.542771 0.308728 0.348632
854 1 0.234284 0.216618 0.0729427
1317 1 0.595025 0.266005 0.385081
1609 1 0.80407 0.301243 0.309503
54 1 0.822106 0.322821 0.162043
216 1 0.998809 0.505966 0.212228
202 1 0.950916 0.557866 0.182142
450 1 0.266951 0.441909 0.118061
879 1 0.472762 0.441184 0.153497
1872 1 0.606254 0.42511 0.181195
379 1 0.860419 0.174101 0.356105
517 1 0.0803632 0.506854 0.146296
682 1 0.253929 0.526069 0.235416
461 1 0.577842 0.453941 0.377652
1324 1 0.440785 0.449591 0.230309
1673 1 0.484044 0.244461 0.245048
1343 1 0.721629 0.442705 0.136221
1075 1 0.0150711 0.253244 0.317473
1066 1 0.949102 0.554063 0.350673
487 1 0.0496611 0.630431 0.210269
826 1 0.0871792 0.641177 0.046245
1293 1 0.255989 0.665703 0.145445
678 1 0.550065 0.679675 0.278369
680 1 0.652381 0.560082 0.160551
339 1 0.0413557 0.567451 0.260454
942 1 0.0326735 0.546364 0.066404
1051 1 0.150425 0.63023 0.98094
454 1 0.388023 0.618221 0.194875
1384 1 0.412097 0.683942 0.166567
2034 1 0.296259 0.591767 0.208297
1063 1 0.659839 0.634509 0.194638
13 1 0.872905 0.57356 0.171991
1493 1 0.758221 0.583918 0.103836
1743 1 0.846948 0.59785 0.384997
1819 1 0.947717 0.850409 0.348851
245 1 0.213803 0.761355 0.14297
2037 1 0.109627 0.685894 0.956975
1895 1 0.163096 0.694725 0.0187188
334 1 0.38191 0.762391 0.180727
1442 1 0.561628 0.811283 0.183523
2002 1 0.64291 0.790741 0.197098
994 1 0.89734 0.505765 0.0747167
257 1 0.13083 0.959665 0.241693
78 1 0.326461 0.813621 0.186595
486 1 0.441763 0.728009 0.271248
1938 1 0.719776 0.89327 0.463665
704 1 0.141124 0.761889 0.271283
907 1 0.193967 0.834682 0.191571
512 1 0.494001 0.878444 0.374051
1085 1 0.462516 0.875672 0.233631
810 1 0.786239 0.816199 0.232698
250 1 0.134028 0.848563 0.252634
809 1 0.0720916 0.857 0.100846
669 1 0.24294 0.877509 0.443057
58 1 0.790588 0.885795 0.223954
1927 1 0.711214 0.0215424 0.32212
224 1 0.813449 0.889103 0.026385
66 1 0.136871 0.906878 0.29833
2038 1 0.293395 -0.000444151 0.270616
466 1 0.322564 0.0392757 0.205186
777 1 0.812597 0.757358 0.294119
816 1 0.878737 0.936649 0.222249
1094 1 0.929098 0.722978 0.220273
1229 1 0.0682485 0.820378 0.23194
642 1 0.167425 0.902697 0.191984
1204 1 0.280373 0.943487 0.214994
885 1 0.322303 0.85994 0.247972
223 1 0.75093 0.879938 0.293442
1996 1 0.00626901 0.95963 0.365522
1517 1 0.306414 0.935661 0.133269
783 1 0.41288 0.954551 0.328776
975 1 0.49711 0.960476 0.351555
1314 1 0.964487 0.94624 0.223936
1386 1 0.0645534 0.112607 0.185213
737 1 0.0603586 0.00842438 0.372828
1973 1 0.205887 0.0692977 0.377151
144 1 0.248271 0.0166365 0.420622
372 1 0.174498 0.230126 0.260003
381 1 0.924295 0.85353 0.241826
62 1 0.336896 0.910988 0.383372
194 1 0.712853 0.929499 0.334592
81 1 0.820981 0.0136851 0.406825
242 1 0.894238 0.906732 0.289856
448 1 0.0637842 0.169758 0.232731
34 1 0.18255 0.116968 0.258417
137 1 0.118033 0.244174 0.1442
1403 1 0.415681 0.145371 0.291789
1091 1 0.374347 0.0378595 0.320991
1675 1 0.463897 0.934117 0.415782
27 1 0.872261 0.244666 0.324466
1024 1 0.327151 0.160658 0.22544
1360 1 0.508356 0.0129684 0.300259
1642 1 0.709869 0.10913 0.254307
1181 1 0.8033 0.240893 0.36509
494 1 0.797252 0.241386 0.173628
2025 1 0.11375 0.241629 0.419533
1801 1 0.187119 0.272122 0.116114
1211 1 0.341835 0.107148 0.322578
1968 1 0.238904 0.36136 0.276749
965 1 0.384593 0.188136 0.345054
1252 1 0.0834633 0.392078 0.26472
1600 1 0.13229 0.336049 0.152462
3 1 0.594775 0.252791 0.628104
1306 1 0.65473 0.330235 0.210448
1561 1 0.50372 0.319696 0.220214
1440 1 0.897388 0.375545 0.243932
1209 1 0.0243091 0.430691 0.023373
1898 1 0.333923 0.32488 0.287749
1884 1 0.409303 0.399019 0.190058
1089 1 0.772289 0.369668 0.347484
241 1 0.623887 0.314866 0.3008
492 1 0.106087 0.559259 0.226612
1557 1 0.132773 0.528187 0.410321
23 1 0.306693 0.358377 0.0907477
286 1 0.497354 0.366112 0.350241
249 1 0.942457 0.300288 0.257467
274 1 0.151742 0.365166 0.233753
1036 1 0.430214 0.288034 0.112885
231 1 0.210533 0.521636 0.437991
1054 1 0.460221 0.473259 0.314604
1849 1 0.960304 0.61525 0.30554
1401 1 0.107966 0.443491 0.123988
95 1 0.0938219 0.390641 0.0582157
1244 1 0.349512 0.485883 0.209318
53 1 0.638741 0.57831 0.340981
1187 1 0.585231 0.544168 0.254887
1624 1 0.65865 0.405765 0.415472
1791 1 0.661189 0.374392 0.272707
124 1 0.821751 0.560309 0.322085
1460 1 0.113292 0.703482 0.0786419
1346 1 0.549388 0.447007 0.128517
178 1 0.671288 0.569076 0.258645
428 1 0.758968 0.430533 0.243455
1936 1 0.795874 0.554395 0.233897
620 1 0.0991608 0.779094 0.157952
35 1 0.360184 0.702432 0.963788
862 1 0.11401 0.56934 0.047852
1577 1 0.705948 0.633331 0.126463
38 1 0.266401 0.644706 0.0667435
447 1 0.167637 0.543662 0.282742
493 1 0.454851 0.647792 0.511252
1646 1 0.38023 0.687453 0.23242
1268 1 0.541066 0.723833 0.05827
778 1 0.259586 0.777113 0.0703892
1820 1 0.712588 0.744717 0.26666
1363 1 0.843571 0.614818 0.104262
801 1 0.730641 0.523095 0.223154
1655 1 0.287823 0.561268 0.012199
1326 1 0.283818 0.62117 0.306379
1974 1 0.782733 0.701699 0.242201
1008 1 0.754286 0.610346 0.261356
264 1 0.20003 0.689183 0.0963588
1062 1 0.175401 0.667609 0.157853
1488 1 0.62998 0.841226 0.146109
296 1 0.675351 0.740934 0.411911
217 1 0.0231105 0.660429 0.332615
1632 1 0.0438268 0.872738 0.379542
333 1 0.199679 0.977325 0.379615
530 1 0.355081 0.847849 0.348656
764 1 0.781034 0.667702 0.0689376
1701 1 0.197647 0.885394 0.346837
266 1 0.267264 0.831308 0.291961
1681 1 0.565956 0.985726 0.328763
698 1 0.539831 0.703582 0.372783
1729 1 0.575634 0.889654 0.137425
1942 1 0.857142 0.64429 0.216398
1140 1 0.939297 0.888518 0.175812
1571 1 0.980199 0.775432 0.229968
1626 1 0.880949 0.871233 0.389882
1299 1 0.241109 0.739326 0.295543
1644 1 0.162357 0.967213 0.520972
476 1 0.437689 0.822487 0.325515
55 1 0.623237 0.907577 0.258104
152 1 0.670213 0.641023 0.295659
1780 1 0.0894392 0.85169 0.321543
892 1 0.0894151 0.237471 0.252756
314 1 0.556676 0.070155 0.286334
1282 1 0.96181 0.095798 0.478524
411 1 0.702355 0.931186 0.257669
549 1 0.0263425 0.979399 0.201932
1578 1 0.122337 0.906245 0.449086
573 1 0.127592 0.174326 0.28712
1005 1 0.229923 0.219551 0.326671
69 1 0.637023 0.0679699 0.292087
2022 1 0.0817092 0.958271 0.32111
1587 1 0.250382 0.155191 0.202701
119 1 0.377141 0.186102 0.435484
856 1 0.522582 0.119138 0.34648
1170 1 0.42665 0.0258128 0.236233
434 1 0.745742 0.0584484 0.408752
232 1 0.191801 0.285276 0.310179
1149 1 0.261297 0.271902 0.119581
1574 1 0.154228 0.191099 0.356682
1500 1 0.448566 0.0264301 0.355697
1395 1 0.620333 0.0856703 0.428064
252 1 0.312043 0.321363 0.404559
1013 1 0.389342 0.30095 0.401373
87 1 0.827299 0.18949 0.224854
1572 1 0.283544 0.310065 0.23389
234 1 0.420284 0.114184 0.458527
813 1 0.335756 0.249389 0.363524
857 1 0.569895 0.385304 0.32781
717 1 0.734413 0.214365 0.210897
1077 1 0.125438 0.369745 0.32451
1565 1 0.416089 0.321658 0.330893
189 1 0.392579 0.400013 0.310186
284 1 0.51311 0.419893 0.276167
488 1 0.848313 0.249908 0.423046
316 1 0.874078 0.311962 0.285257
1235 1 0.281878 0.430816 0.22842
609 1 0.515388 0.589642 0.467915
572 1 0.733268 0.61529 0.347975
1272 1 0.726041 0.471583 0.382769
1993 1 0.0803488 0.578882 0.115095
1108 1 0.400945 0.402702 0.10078
1760 1 0.877926 0.172298 0.276074
2011 1 0.95411 0.353169 0.309736
527 1 0.152685 0.596671 0.166759
1602 1 0.526252 0.597024 0.253046
99 1 0.606716 0.546253 0.462219
2014 1 0.764924 0.436758 0.319232
1405 1 0.917834 0.569921 0.420173
292 1 0.815611 0.466006 0.279168
1985 1 0.212136 0.5888 0.222109
662 1 0.678734 0.785127 0.127551
1023 1 0.936771 0.684402 0.326814
1778 1 0.206195 0.592077 0.0948258
1259 1 0.064665 0.583748 0.40463
1195 1 0.248399 0.556779 0.320818
1069 1 0.429878 0.377024 0.37708
1059 1 0.353441 0.421428 0.246185
145 1 0.993838 0.690166 0.265707
1692 1 0.171048 0.693534 0.288234
732 1 0.761198 0.744825 0.54874
254 1 0.859524 0.574178 0.260809
1246 1 0.147441 0.644065 0.237662
622 1 0.207592 0.959794 0.226428
112 1 0.493722 0.869366 0.153012
766 1 0.751498 0.812159 0.516152
1990 1 0.899029 0.493142 0.296632
1230 1 0.937859 0.419359 0.195116
263 1 0.0810759 0.955673 0.490609
1647 1 0.0758921 0.650737 0.276964
176 1 0.579432 0.750949 0.251248
320 1 0.596739 0.729983 0.176316
1531 1 0.558883 0.62758 0.616662
1364 1 0.750977 0.687791 0.399575
1019 1 0.0695539 0.716981 0.0139859
190 1 0.869886 0.80757 0.33407
1015 1 0.255867 0.707136 0.212397
351 1 0.587009 0.843443 0.248941
1193 1 0.820123 0.817064 0.56264
2009 1 0.313976 0.742211 0.242013
1408 1 0.463202 0.962298 0.271111
1846 1 0.735606 0.757776 0.374844
825 1 0.912914 0.645579 0.168153
169 1 0.874585 0.857305 0.185845
312 1 0.532097 0.863106 0.303768
561 1 0.535122 0.883764 0.221186
556 1 0.723144 0.802795 0.309179
22 1 0.895641 0.915831 0.442358
90 1 0.931716 0.829311 0.508328
566 1 0.0795717 0.846963 0.493264
80 1 0.983545 0.049527 0.42029
1487 1 0.373813 0.63834 0.290493
442 1 0.512147 0.740099 0.430473
1228 1 0.464083 0.670211 0.367321
1025 1 0.744721 0.957608 0.197004
276 1 0.817475 0.869191 0.425979
1706 1 0.174834 0.733747 0.196768
636 1 0.764417 0.91436 0.398736
675 1 0.16012 0.979274 0.315722
114 1 0.270236 0.853493 0.362135
1773 1 0.136037 0.840353 0.539052
1852 1 0.368725 0.104116 0.40796
583 1 0.650248 0.894375 0.191869
163 1 0.29219 0.0381622 0.363699
1545 1 0.303648 0.142876 0.474524
1262 1 0.296672 0.0271474 0.568842
767 1 0.212021 0.13772 0.494538
1562 1 0.390183 0.923746 0.449773
240 1 0.581403 0.0242963 0.211428
1175 1 0.132398 0.0325561 0.389915
832 1 0.152698 0.120104 0.375501
1725 1 0.367643 0.0811183 0.255913
1954 1 0.345186 0.854592 0.441804
864 1 0.0188366 0.0845179 0.368071
2015 1 0.941411 0.284858 0.501292
105 1 0.286913 0.113668 0.407438
301 1 0.265379 0.253791 0.404222
1643 1 0.382362 0.302605 0.240091
61 1 0.482216 0.214758 0.471273
376 1 0.626854 0.0497808 0.368207
501 1 0.636181 0.994902 0.284026
1790 1 0.0781499 0.0156492 0.237677
1806 1 0.123276 0.304622 0.272255
1892 1 0.15048 0.340677 0.386556
1459 1 0.069441 0.0583908 0.652918
1986 1 0.545662 0.287134 0.576164
1721 1 0.53222 0.271328 0.432755
1335 1 0.388052 0.0867619 0.184999
1499 1 0.592824 0.189876 0.352293
757 1 0.788005 0.131966 0.253432
577 1 0.826763 0.320023 0.379349
529 1 0.172772 0.41429 0.360373
1420 1 0.90955 0.130989 0.431288
1068 1 0.96423 0.146813 0.310389
498 1 0.981605 0.0753984 0.298898
161 1 0.131393 0.46855 0.263745
380 1 0.0735992 0.449295 0.350847
438 1 0.370029 0.504933 0.362032
213 1 0.520434 0.284843 0.502359
1222 1 0.563807 0.389282 0.420168
787 1 0.657556 0.249463 0.31459
652 1 0.835446 0.34387 0.720566
1951 1 0.832783 0.345799 0.458593
1795 1 0.211574 0.156268 0.407016
1909 1 0.3388 0.354677 0.223222
1295 1 0.61069 0.242123 0.465263
1383 1 0.888365 0.348325 0.518833
133 1 0.904309 0.452798 0.386684
535 1 0.00721731 0.399367 0.350889
1473 1 0.188089 0.47598 0.116795
1858 1 0.953607 0.430289 0.306995
834 1 0.824533 0.440193 0.361702
1599 1 0.976865 0.609355 0.232138
555 1 0.353621 0.565077 0.246762
63 1 0.719153 0.557552 0.485914
1887 1 0.0914968 0.655602 0.360563
1843 1 0.223315 0.349808 0.363001
1677 1 0.462575 0.596695 0.367487
649 1 0.822001 0.385036 0.270583
1072 1 0.87325 0.646531 0.472704
88 1 0.0117558 0.667933 0.0165726
869 1 0.0342056 0.641104 0.525051
986 1 0.560672 0.576527 0.322783
1221 1 0.034023 0.452834 0.284868
882 1 0.325239 0.658627 0.388056
1775 1 0.332211 0.703467 0.171102
1606 1 0.419222 0.524349 0.228624
1809 1 0.531891 0.494781 0.295553
925 1 0.683544 0.667347 0.363556
198 1 0.74908 0.692817 0.319418
941 1 0.984707 0.747359 0.424386
1003 1 0.366734 0.678204 0.554738
414 1 0.67663 0.673773 0.445851
949 1 0.757516 0.678526 0.483156
1100 1 0.958316 0.686104 0.397773
1423 1 0.0845552 0.76898 0.473399
192 1 0.40692 0.569151 0.330923
503 1 0.700198 0.460125 0.289341
1205 1 0.42777 0.455205 0.377074
1666 1 0.510816 0.796103 0.249688
1678 1 0.880853 0.817587 0.448757
1925 1 0.870238 0.802104 0.259147
2024 1 0.302841 0.659721 0.248383
103 1 0.517001 0.738847 0.294585
849 1 0.543956 0.622807 0.374062
1842 1 0.758193 0.995888 0.447775
1359 1 0.820775 0.726911 0.369539
86 1 0.103429 0.688742 0.442234
1876 1 0.24988 0.823611 0.150639
629 1 0.172604 0.669382 0.380248
164 1 0.237487 0.897526 0.169871
1414 1 0.295173 0.905188 0.315257
576 1 0.439138 0.981003 0.475921
1139 1 0.639091 0.794249 0.276389
75 1 0.739144 0.820525 0.443519
1368 1 0.870445 0.95062 0.368882
676 1 0.0496882 0.855328 0.572132
1605 1 0.171552 0.867619 0.413434
751 1 0.77257 0.949419 0.267021
1714 1 0.0520916 0.899492 0.449222
302 1 0.310168 0.788548 0.354027
497 1 0.676367 0.865574 0.293793
1792 1 0.600753 0.118007 0.360909
31 1 0.925824 0.753609 0.375242
1649 1 0.906509 0.0861347 0.554507
1249 1 0.196808 0.895747 0.546558
1694 1 0.531679 0.988766 0.416028
132 1 0.591771 0.0138015 0.448395
1180 1 0.722526 0.944779 0.521606
271 1 0.0492489 0.291315 0.397595
1749 1 0.971374 0.292279 0.426339
1840 1 0.0791487 0.116432 0.344661
611 1 0.435899 0.112309 0.372531
64 1 0.632918 0.8319 0.341107
1563 1 0.281575 0.102287 0.541289
1658 1 0.702324 0.987247 0.388829
1772 1 0.0267309 0.208683 0.443989
489 1 0.010779 0.112489 0.536823
418 1 0.554944 0.221534 0.536685
392 1 0.545001 0.119522 0.465424
89 1 0.489503 0.152726 0.429104
480 1 0.251317 0.194085 0.461125
1958 1 0.348155 0.430976 0.410209
613 1 0.805731 0.111236 0.345833
1304 1 0.776719 0.271589 0.43238
1006 1 0.0969646 0.259731 0.343009
1868 1 0.00198551 0.179354 0.381399
871 1 0.142458 0.302506 0.448674
1518 1 0.459819 0.114492 0.192452
1123 1 0.802126 0.089708 0.436392
1092 1 0.0599362 0.389484 0.573797
1505 1 0.732296 0.203784 0.487585
1216 1 0.487551 0.458153 0.496574
1477 1 0.917594 0.292873 0.362817
37 1 0.956752 0.218989 0.341338
1959 1 0.0381457 0.0373989 0.478086
219 1 0.26978 0.364033 0.180715
1150 1 0.677017 0.270695 0.498659
563 1 0.734512 0.3616 0.410496
788 1 0.726441 0.189941 0.308961
404 1 0.0390374 0.517862 0.389633
1924 1 0.317431 0.491954 0.283
1689 1 0.292173 0.488566 0.419174
2008 1 0.678098 0.482474 0.454507
2027 1 0.881817 0.598718 0.53213
441 1 0.19651 0.454374 0.423381
761 1 0.323126 0.491946 0.100074
982 1 0.408117 0.483672 0.157973
446 1 0.296352 0.41864 0.29788
1418 1 0.390363 0.475406 0.28207
1409 1 0.459489 0.527412 0.365835
1640 1 0.726906 0.239593 0.375245
1349 1 0.786094 0.505829 0.363356
1367 1 0.788656 0.40435 0.477758
1523 1 0.986238 0.512743 0.295181
162 1 0.795621 0.62309 0.507594
1661 1 0.786685 0.568391 0.417445
922 1 0.803036 0.631793 0.313902
472 1 0.98524 0.612971 0.378514
1623 1 0.913653 0.437266 0.510428
1710 1 0.284631 0.539464 0.481612
1617 1 0.145422 0.606057 0.436235
405 1 0.592922 0.513148 0.337035
954 1 0.24579 0.491974 0.362791
1930 1 0.886865 0.400367 0.322707
823 1 0.0270778 0.577847 0.331192
1769 1 0.184652 0.715646 0.450323
1944 1 0.33872 0.74528 0.587474
209 1 0.670141 0.557025 0.420778
1055 1 0.845839 0.634241 0.586412
139 1 0.852352 0.510192 0.391182
999 1 0.817172 0.691919 0.529637
1381 1 0.24298 0.713984 0.370538
1438 1 0.209265 0.628387 0.294375
765 1 0.424132 0.709826 0.424954
1200 1 0.454164 0.768979 0.20286
1865 1 0.997145 0.733718 0.33835
1880 1 0.298147 0.620127 0.444749