ITEM: TIMESTEP
100000
ITEM: NUMBER OF ATOMS
2048
ITEM: BOX BOUNDS pp pp pp
0.0000000000000000e+00 1.2302095357258066e+01
0.0000000000000000e+00 1.2302095357258066e+01
0.0000000000000000e+00 1.2302095357258066e+01
ITEM: ATOMS id type xs ys zs
242 1 0.132703 0.0412611 0.0340379
1106 1 0.413227 0.0161402 0.0254313
915 1 0.840435 0.00410357 0.0244289
1053 1 0.987218 0.00731262 0.0416345
614 1 0.0339396 0.0886807 0.0531143
732 1 0.218275 0.06975 0.0183825
132 1 0.355414 0.087253 0.00574751
1258 1 0.422497 0.0878706 0.0521819
576 1 0.50605 0.0710441 0.0387711
1487 1 0.576217 0.0967448 0.0205711
1861 1 0.928229 0.0727822 0.0210504
1267 1 0.0536143 0.163518 0.0210509
1728 1 0.126342 0.143069 0.054841
122 1 0.289638 0.111594 0.0337675
329 1 0.395584 0.161959 0.0408451
1271 1 0.542948 0.166332 0.0120491
1584 1 0.6163 0.165419 0.0437033
967 1 0.689731 0.120808 0.0322674
1054 1 0.786652 0.115835 0.0357103
528 1 0.876193 0.150276 0.0124282
1181 1 0.972281 0.140049 0.0460067
817 1 0.196976 0.177301 0.0208122
276 1 0.312872 0.181509 0.0378779
356 1 0.462985 0.199713 0.0230453
873 1 0.749799 0.185268 0.0296507
1020 1 0.825281 0.203608 0.0437888
657 1 0.0814577 0.232969 0.0441342
1718 1 0.133081 0.276679 0.000113694
1988 1 0.221609 0.27399 0.0270091
1676 1 0.385524 0.240279 0.043867
907 1 0.61487 0.240226 0.00997929
683 1 0.993715 0.227468 0.0214233
1381 1 0.357597 0.313935 0.0278242
1160 1 0.438724 0.297595 0.0350177
145 1 0.571576 0.315618 0.00248372
662 1 0.655233 0.30767 0.0242552
1308 1 0.825587 0.298677 0.031537
1639 1 0.913735 0.314348 0.0214586
1492 1 0.157447 0.370075 0.0341447
1326 1 0.402303 0.375633 0.0540718
1540 1 0.486595 0.376562 0.0432306
250 1 0.851795 0.379931 0.00110177
838 1 0.998132 0.340145 0.0445142
1387 1 0.0363248 0.416389 0.0248206
1633 1 0.281373 0.413167 0.0346513
500 1 0.658474 0.411399 0.0546899
1468 1 0.895142 0.441323 0.0359767
1732 1 0.030891 0.498195 0.0238472
485 1 0.117068 0.451047 0.034806
622 1 0.415917 0.457139 0.032856
1026 1 0.539377 0.461725 0.0306786
367 1 0.615175 0.47673 0.0375572
71 1 0.802448 0.482763 0.036192
1776 1 0.16758 0.503074 0.0212899
727 1 0.257736 0.545791 0.0152707
850 1 0.332343 0.518464 0.0529089
451 1 0.532006 0.535213 0.0114406
274 1 0.664295 0.549683 0.0514673
1493 1 0.876488 0.515688 0.0113837
1479 1 0.0574189 0.575995 0.0322844
1033 1 0.13476 0.582713 0.038305
454 1 0.368368 0.584746 0.0321397
1594 1 0.452067 0.563788 0.0205893
1608 1 0.588605 0.585461 0.047441
602 1 0.820404 0.566662 0.0335259
1784 1 0.939235 0.572106 0.00356911
1887 1 0.182557 0.661889 0.0257259
1237 1 0.286011 0.620847 0.00945288
1996 1 0.343648 0.663813 0.0400044
1719 1 0.43434 0.646495 0.0308695
583 1 0.525659 0.623542 0.0147307
1114 1 0.652548 0.633031 0.0497532
1743 1 0.824259 0.653597 0.0347467
1924 1 0.272902 0.698164 0.0196835
1955 1 0.496037 0.698658 0.0179419
245 1 0.647096 0.716098 0.0495248
1759 1 0.719295 0.673866 0.0307467
246 1 0.0666646 0.724435 0.0407052
277 1 0.546377 0.764275 0.0362058
1304 1 0.789838 0.759671 0.0104182
805 1 0.855988 0.727701 0.0507699
508 1 0.920071 0.773617 0.0415004
1365 1 0.985784 0.734175 0.0432695
1175 1 0.0279579 0.80318 0.0125764
1103 1 0.117898 0.799222 0.0169572
1962 1 0.249957 0.811241 0.0145317
1384 1 0.407041 0.799388 0.00926752
393 1 0.592145 0.823299 0.00683962
762 1 0.667059 0.796122 0.0253171
300 1 0.737419 0.82668 0.0150967
144 1 0.0834285 0.868484 0.0251504
766 1 0.217564 0.880163 0.0547124
797 1 0.299559 0.876047 0.0497643
1972 1 0.364462 0.880769 0.00568917
1817 1 0.505948 0.833558 0.00251911
1470 1 0.665713 0.875445 0.0119526
486 1 0.149708 0.926604 0.0336699
1212 1 0.476385 0.921574 0.0245712
1397 1 0.559734 0.900711 0.00683764
553 1 0.710917 0.917751 0.0539046
421 1 0.787427 0.900565 0.00961704
460 1 0.919588 0.935874 0.0212067
1011 1 0.995043 0.889167 0.0232055
729 1 0.0460269 0.952277 0.0300459
1059 1 0.196159 0.991667 0.032147
1375 1 0.268099 0.960419 0.00722748
273 1 0.340504 0.95845 0.0267624
313 1 0.541378 0.97742 0.000711663
884 1 0.683519 0.995688 0.0228811
409 1 0.0468587 0.0099331 0.0987754
56 1 0.194539 0.0532243 0.0950012
1333 1 0.270681 0.0259576 0.0730489
1534 1 0.347015 0.0464148 0.0747382
1851 1 0.579585 0.0237941 0.0567414
1191 1 0.678327 0.00056319 0.0997772
1269 1 0.824043 0.0224502 0.0984235
27 1 0.908821 0.00478519 0.0645737
339 1 0.115261 0.0717556 0.10812
1649 1 0.247922 0.110169 0.102137
1774 1 0.636862 0.0839445 0.0731756
1400 1 0.718965 0.0737688 0.0912238
38 1 0.79057 0.103014 0.110197
896 1 0.864072 0.0858239 0.0736411
858 1 0.977031 0.0864363 0.104196
516 1 0.0637943 0.155672 0.0986894
412 1 0.342724 0.12632 0.0908726
717 1 0.493685 0.144778 0.080306
1431 1 0.568329 0.116898 0.10229
2009 1 0.726626 0.153591 0.0953271
1552 1 0.862666 0.154833 0.100315
1156 1 0.155025 0.220927 0.0687766
159 1 0.246241 0.209643 0.084025
765 1 0.345289 0.204471 0.105634
1854 1 0.543945 0.214679 0.0774597
1005 1 0.922075 0.206587 0.0607378
1950 1 0.0266313 0.236384 0.105448
1804 1 0.30898 0.264641 0.0674513
714 1 0.464833 0.235222 0.0961519
774 1 0.618692 0.236501 0.0909272
1713 1 0.692897 0.241719 0.0580911
301 1 0.770208 0.239954 0.100472
987 1 0.86315 0.253945 0.0855288
1192 1 0.946215 0.275112 0.0971453
1409 1 0.0820655 0.310155 0.0650529
776 1 0.157484 0.300095 0.0917044
369 1 0.256836 0.29948 0.11092
211 1 0.393444 0.279394 0.106721
217 1 0.530357 0.294962 0.0662175
738 1 0.745348 0.303732 0.0567466
854 1 0.161678 0.378679 0.110807
318 1 0.225124 0.346236 0.0615681
1280 1 0.327355 0.343476 0.09801
1801 1 0.584136 0.372886 0.0724691
1244 1 0.656985 0.342313 0.0958911
1340 1 0.823693 0.378152 0.0779807
1294 1 0.936208 0.356387 0.0909783
284 1 0.0928798 0.388996 0.0782978
1506 1 0.198992 0.438707 0.059899
1374 1 0.342237 0.442778 0.0702708
1744 1 0.563234 0.443685 0.106694
1073 1 0.740477 0.397428 0.0570973
821 1 0.96401 0.44086 0.0753423
1666 1 0.0571238 0.456564 0.0976878
1737 1 0.483579 0.446694 0.0844071
840 1 0.706158 0.476838 0.0629914
118 1 0.790141 0.449859 0.106813
1651 1 0.0947304 0.528975 0.0969774
1891 1 0.17505 0.532077 0.0962844
1221 1 0.257191 0.520732 0.0944032
346 1 0.4031 0.525829 0.072103
1739 1 0.534269 0.541386 0.0945549
877 1 0.766055 0.533989 0.0833674
378 1 0.857937 0.519329 0.0898071
1653 1 0.936822 0.515621 0.0661423
267 1 0.210376 0.590484 0.06518
1968 1 0.306138 0.581817 0.0931968
1041 1 0.462182 0.581161 0.106443
10 1 0.89077 0.592731 0.0699468
783 1 0.987127 0.573432 0.0719088
1220 1 0.00199955 0.663036 0.0664871
1966 1 0.0597105 0.626316 0.0962486
1495 1 0.119314 0.658531 0.0624233
37 1 0.234961 0.665088 0.101117
749 1 0.397595 0.631113 0.0967351
2038 1 0.543296 0.617657 0.106815
1013 1 0.751219 0.612538 0.0785325
257 1 0.418079 0.718462 0.0595551
1532 1 0.572402 0.675352 0.071203
1055 1 0.779834 0.707854 0.068659
1272 1 0.906871 0.673372 0.0739707
1309 1 0.0234881 0.762471 0.107942
1872 1 0.147403 0.734918 0.0679125
1133 1 0.224718 0.74079 0.0561666
1793 1 0.318672 0.761815 0.0647532
1070 1 0.716508 0.754491 0.0793807
1319 1 0.0908395 0.813792 0.0867473
504 1 0.183087 0.807635 0.0570496
1963 1 0.26715 0.810105 0.0919971
851 1 0.355403 0.827596 0.0820625
1530 1 0.47374 0.784667 0.0615543
1986 1 0.609095 0.788621 0.0802195
1901 1 0.978703 0.827338 0.0944817
1416 1 0.443724 0.856706 0.067501
786 1 0.540939 0.841624 0.0771951
1008 1 0.620301 0.865184 0.074268
1574 1 0.688134 0.852359 0.107754
1446 1 0.820926 0.843704 0.06083
138 1 0.900201 0.847167 0.0622802
440 1 0.0390438 0.897126 0.0904616
612 1 0.127322 0.891211 0.0991155
1753 1 0.40175 0.923611 0.0719073
1438 1 0.470524 0.929958 0.101997
2043 1 0.548738 0.938109 0.0793071
2006 1 0.78544 0.913835 0.0895769
113 1 0.863242 0.925735 0.0853693
241 1 0.958521 0.928808 0.0869473
2010 1 0.118891 0.98039 0.0806776
804 1 0.334122 0.948186 0.105956
1751 1 0.485737 0.99702 0.0574733
1292 1 0.622533 0.950623 0.0620966
1354 1 0.753877 0.985888 0.0757106
1042 1 0.103359 0.0141042 0.16145
793 1 0.248319 0.0224526 0.153237
1101 1 0.362266 0.00935011 0.148656
924 1 0.552487 0.0423452 0.138037
121 1 0.729367 0.00708079 0.157556
1527 1 0.969466 0.00827818 0.121205
515 1 0.056701 0.0923015 0.165064
1363 1 0.302816 0.0789713 0.150635
1031 1 0.396832 0.0780077 0.12983
810 1 0.477583 0.0601768 0.111649
2 1 0.643627 0.0611259 0.14871
1146 1 0.171934 0.141325 0.114442
1925 1 0.298343 0.157944 0.150212
1187 1 0.465208 0.122272 0.161561
1186 1 0.636232 0.15015 0.115471
102 1 0.90691 0.130021 0.160298
983 1 0.122579 0.201391 0.141322
947 1 0.423157 0.166982 0.112064
2028 1 0.527183 0.173136 0.148201
1785 1 0.592157 0.221074 0.161663
1190 1 0.669196 0.207021 0.159773
275 1 0.75399 0.194168 0.160239
341 1 0.826715 0.215693 0.145377
489 1 0.902939 0.216256 0.136569
1726 1 0.983938 0.169637 0.119003
431 1 0.0918295 0.274127 0.148596
497 1 0.191996 0.240383 0.13893
1475 1 0.269477 0.2395 0.163652
1818 1 0.523964 0.258026 0.149339
1690 1 0.705737 0.271929 0.135131
1803 1 0.0154553 0.290761 0.163483
1204 1 0.468774 0.310845 0.117581
1464 1 0.604901 0.295027 0.14439
1974 1 0.796274 0.312424 0.137725
205 1 0.86819 0.322868 0.117016
1038 1 0.0223632 0.361092 0.122093
751 1 0.394513 0.360084 0.130718
1044 1 0.537082 0.353174 0.131887
57 1 0.720492 0.345406 0.145272
1172 1 0.855346 0.388712 0.165957
239 1 0.0131168 0.430055 0.162186
188 1 0.259279 0.389846 0.11761
745 1 0.339898 0.428346 0.151339
426 1 0.463407 0.394047 0.130682
1093 1 0.637227 0.402871 0.149517
1134 1 0.712697 0.42353 0.127513
1255 1 0.93645 0.394471 0.163717
649 1 0.0744572 0.492541 0.165001
826 1 0.137701 0.460556 0.111128
1082 1 0.25013 0.466632 0.14627
1245 1 0.412151 0.460841 0.128371
906 1 0.639867 0.475913 0.112916
506 1 0.88262 0.447796 0.115607
700 1 0.949017 0.47838 0.154766
1912 1 0.0107587 0.513485 0.120585
492 1 0.345635 0.501978 0.129041
1089 1 0.415202 0.53654 0.166332
266 1 0.492255 0.503651 0.162359
502 1 0.613268 0.550274 0.115123
225 1 0.695952 0.533795 0.127404
357 1 0.800688 0.520352 0.154742
1970 1 0.141389 0.604181 0.117265
1627 1 0.233548 0.587335 0.139063
1945 1 0.356812 0.593281 0.151059
1213 1 0.758401 0.587477 0.152439
1066 1 0.822681 0.587602 0.111673
213 1 0.94034 0.559937 0.135417
186 1 0.686171 0.612272 0.137068
84 1 0.894141 0.633263 0.137614
1546 1 0.991501 0.626345 0.138251
980 1 0.0739623 0.694701 0.129899
618 1 0.16657 0.694856 0.135464
1952 1 0.348807 0.68938 0.12127
1140 1 0.467555 0.668628 0.111139
1536 1 0.645005 0.678814 0.122953
856 1 0.727529 0.680679 0.12267
724 1 0.82633 0.673058 0.123607
380 1 0.893799 0.711446 0.15424
1831 1 0.965437 0.705515 0.124775
1120 1 0.121458 0.764228 0.142115
1813 1 0.199799 0.767855 0.127516
1596 1 0.271354 0.726698 0.139184
197 1 0.519967 0.727717 0.119038
686 1 0.671699 0.777607 0.136907
1563 1 0.766871 0.741903 0.148201
467 1 0.841487 0.772136 0.130185
228 1 0.0391988 0.832175 0.14547
869 1 0.32135 0.790953 0.148956
1499 1 0.404222 0.778196 0.122092
1472 1 0.475311 0.791263 0.141809
1087 1 0.556223 0.796633 0.148783
641 1 0.766027 0.825576 0.122851
1660 1 0.918002 0.786142 0.13045
669 1 0.214984 0.847249 0.143512
204 1 0.316408 0.872504 0.135991
208 1 0.402863 0.869256 0.132234
1047 1 0.498329 0.865075 0.143722
1884 1 0.574451 0.877718 0.136258
570 1 0.851344 0.853131 0.135038
642 1 0.930732 0.8717 0.134512
1019 1 0.0781778 0.915291 0.160295
1117 1 0.252691 0.933793 0.111998
1010 1 0.643616 0.913412 0.134938
1289 1 0.72309 0.937682 0.127204
1352 1 0.997173 0.901478 0.158617
1238 1 0.188141 0.980477 0.128054
589 1 0.433862 0.99346 0.117102
1543 1 0.525568 0.965137 0.15804
1161 1 0.598573 0.978658 0.128058
1201 1 0.798867 0.968212 0.15985
1846 1 0.895202 0.999011 0.141506
845 1 0.0180831 0.0401602 0.212409
1628 1 0.308642 0.0358246 0.214986
544 1 0.469976 0.0191193 0.181239
607 1 0.65844 0.000563524 0.19765
1640 1 0.18787 0.0713201 0.18058
578 1 0.389209 0.0582317 0.206903
83 1 0.521263 0.0834339 0.197536
1699 1 0.775399 0.0693648 0.17384
24 1 0.860349 0.0664077 0.182802
1600 1 0.94071 0.0582724 0.178323
269 1 0.126642 0.119466 0.173406
997 1 0.225331 0.149169 0.185607
979 1 0.386806 0.137185 0.177779
812 1 0.587491 0.133838 0.182517
1617 1 0.704906 0.112838 0.169102
1135 1 0.80889 0.138174 0.184508
1436 1 0.983542 0.125949 0.183721
1987 1 0.0398436 0.188997 0.173042
1406 1 0.171298 0.21875 0.210554
603 1 0.381558 0.220137 0.176429
54 1 0.465985 0.210803 0.180432
1671 1 0.867094 0.188536 0.219299
1279 1 0.0688221 0.256658 0.218201
946 1 0.700743 0.254688 0.212119
890 1 0.804416 0.248901 0.219853
194 1 0.88102 0.262468 0.199493
1025 1 0.963733 0.236044 0.192188
1240 1 0.193237 0.309815 0.182211
201 1 0.339509 0.296166 0.179562
844 1 0.418722 0.28532 0.18496
1243 1 0.491052 0.325242 0.195038
759 1 0.658736 0.329668 0.209004
1798 1 0.742722 0.321066 0.211404
307 1 0.93388 0.308321 0.168656
1342 1 0.115661 0.344804 0.175189
1254 1 0.266758 0.350801 0.190429
1812 1 0.357193 0.370345 0.20082
1002 1 0.56734 0.348528 0.206858
1805 1 0.986633 0.343538 0.216866
881 1 0.0956258 0.417664 0.168673
673 1 0.207114 0.401169 0.180409
1944 1 0.289385 0.423349 0.210889
1510 1 0.424692 0.412706 0.194024
1965 1 0.524717 0.415678 0.181486
1770 1 0.605525 0.41317 0.221091
747 1 0.6859 0.415504 0.210866
1779 1 0.775752 0.410095 0.177827
22 1 0.0128655 0.486933 0.215101
1873 1 0.146217 0.468986 0.197989
982 1 0.367964 0.488764 0.203063
1012 1 0.575779 0.472811 0.176587
1139 1 0.661806 0.490993 0.188749
1441 1 0.743899 0.481539 0.189533
750 1 0.864271 0.479613 0.188902
1150 1 0.131794 0.546548 0.17628
1838 1 0.207794 0.518594 0.182363
1330 1 0.290709 0.506484 0.203628
1 1 0.56137 0.548914 0.197868
634 1 0.92813 0.530472 0.214731
236 1 0.067668 0.609078 0.169735
1091 1 0.203207 0.587338 0.219649
1188 1 0.277828 0.586668 0.206823
897 1 0.500479 0.593798 0.186286
2048 1 0.602912 0.609206 0.168989
1402 1 0.708426 0.555737 0.202064
521 1 0.865656 0.560545 0.168191
875 1 0.991836 0.575743 0.195466
1631 1 0.141836 0.62712 0.191116
1811 1 0.227169 0.650955 0.191135
109 1 0.314658 0.653506 0.183936
975 1 0.428105 0.624053 0.170811
891 1 0.669801 0.640037 0.209369
387 1 0.822162 0.624667 0.185774
117 1 0.924105 0.613001 0.210909
389 1 0.0298248 0.683662 0.196999
1282 1 0.116673 0.699836 0.198974
1802 1 0.281601 0.714333 0.218049
2029 1 0.48303 0.680348 0.195985
582 1 0.566867 0.685258 0.172152
90 1 0.68244 0.715083 0.181361
360 1 0.757771 0.675398 0.198606
42 1 0.952964 0.684265 0.198427
1757 1 0.0600147 0.771098 0.192771
1742 1 0.171807 0.772123 0.202981
864 1 0.356308 0.729293 0.195789
865 1 0.433253 0.745899 0.187255
294 1 0.534187 0.746318 0.20767
1567 1 0.61074 0.750616 0.193451
701 1 0.825035 0.726573 0.195367
29 1 0.976452 0.770798 0.190752
859 1 0.24991 0.787168 0.188828
140 1 0.364211 0.809504 0.210684
779 1 0.726772 0.778655 0.208939
1807 1 0.801146 0.806812 0.190117
631 1 0.888967 0.790084 0.203058
1927 1 0.0382244 0.844023 0.222119
487 1 0.115834 0.843013 0.171575
285 1 0.273383 0.862418 0.212137
1249 1 0.433461 0.837605 0.194023
219 1 0.504758 0.854676 0.220431
142 1 0.6171 0.84192 0.19148
1758 1 0.699734 0.857014 0.183197
1629 1 0.840743 0.869505 0.216844
72 1 0.955674 0.84532 0.20993
1217 1 0.165217 0.916632 0.16994
1581 1 0.233098 0.938578 0.193049
1329 1 0.447591 0.917498 0.175136
1306 1 0.558682 0.906302 0.206922
1022 1 0.642456 0.91749 0.217888
1960 1 0.728811 0.941768 0.203982
1761 1 0.778566 0.89439 0.169205
1604 1 0.879242 0.922739 0.169569
1119 1 0.0305649 0.97332 0.172756
1907 1 0.318447 0.946753 0.185408
849 1 0.583606 0.987995 0.209714
419 1 0.859559 0.98367 0.212513
1202 1 0.957683 0.962645 0.18973
478 1 0.159048 0.0074691 0.277562
1064 1 0.229294 0.0152905 0.229227
2000 1 0.364835 0.0285973 0.277572
1157 1 0.44898 0.0296311 0.259341
67 1 0.582716 0.0271602 0.277227
698 1 0.786689 0.00040541 0.229231
1295 1 0.905524 0.0307937 0.248736
863 1 0.106984 0.0600318 0.235211
441 1 0.23592 0.100804 0.247599
862 1 0.318293 0.110394 0.231745
1902 1 0.4471 0.102748 0.23449
646 1 0.568727 0.108609 0.25695
1756 1 0.623016 0.0680946 0.224998
1895 1 0.712949 0.0664718 0.237436
396 1 0.794462 0.07488 0.261609
1940 1 0.955539 0.0882798 0.254563
498 1 0.0523066 0.122009 0.240115
1787 1 0.17021 0.144403 0.238395
617 1 0.811286 0.154257 0.262511
1630 1 0.884012 0.113135 0.24787
1948 1 0.0121227 0.204014 0.246394
182 1 0.0982745 0.18618 0.22719
678 1 0.242421 0.194769 0.247288
1525 1 0.313847 0.211668 0.222776
1433 1 0.398132 0.18183 0.241751
1572 1 0.514614 0.16949 0.234453
1586 1 0.590432 0.189258 0.254032
1806 1 0.670531 0.171142 0.229204
909 1 0.746252 0.199902 0.239855
1362 1 0.937128 0.166863 0.233835
180 1 0.00594818 0.275234 0.26097
202 1 0.242565 0.277445 0.23529
95 1 0.376076 0.26781 0.257745
465 1 0.455819 0.240975 0.258078
566 1 0.536343 0.25659 0.230592
210 1 0.625681 0.255813 0.228092
39 1 0.923048 0.245972 0.262176
327 1 0.14307 0.303762 0.243321
1947 1 0.436744 0.317293 0.264687
444 1 0.524903 0.323462 0.269737
542 1 0.822817 0.325747 0.227741
1324 1 0.0667563 0.338193 0.235696
1999 1 0.224799 0.354161 0.252096
1109 1 0.899188 0.347367 0.225498
737 1 0.0410557 0.41238 0.229342
1404 1 0.149899 0.3905 0.228811
1313 1 0.366287 0.423066 0.257315
1392 1 0.491853 0.389969 0.245664
1881 1 0.829289 0.405724 0.235852
547 1 0.961179 0.430378 0.232453
206 1 0.0886877 0.477134 0.252153
1286 1 0.222325 0.464037 0.230581
373 1 0.444788 0.495502 0.227046
2046 1 0.518594 0.472815 0.232939
1882 1 0.596568 0.488905 0.247029
994 1 0.68351 0.499026 0.268438
1198 1 0.78392 0.474572 0.261608
1408 1 0.861541 0.476321 0.266984
829 1 0.0665452 0.551682 0.228803
408 1 0.155932 0.516129 0.258491
1898 1 0.505924 0.547591 0.261403
1502 1 0.638025 0.555108 0.232553
977 1 0.781043 0.553077 0.228901
448 1 0.998252 0.537165 0.270174
1620 1 0.128294 0.59126 0.263623
470 1 0.361157 0.610666 0.233047
1199 1 0.432128 0.575939 0.23477
415 1 0.72929 0.608784 0.25993
1921 1 0.86184 0.564271 0.253532
1693 1 0.0741762 0.640859 0.247261
1529 1 0.278916 0.632234 0.271714
1180 1 0.489862 0.636286 0.265601
1866 1 0.557333 0.629043 0.22843
957 1 0.640587 0.626052 0.276098
1517 1 0.790266 0.656923 0.271552
799 1 0.975418 0.615963 0.275389
978 1 0.190326 0.712404 0.249149
595 1 0.340197 0.683885 0.273315
962 1 0.409237 0.673589 0.233372
1832 1 0.608222 0.696384 0.246201
981 1 0.698775 0.689892 0.258119
96 1 0.875851 0.672862 0.223118
930 1 0.0457764 0.725594 0.265284
1828 1 0.118853 0.752753 0.258262
1065 1 0.470484 0.723619 0.257709
1448 1 0.776265 0.735297 0.249441
824 1 0.918868 0.733523 0.251765
788 1 0.228919 0.787967 0.271007
1137 1 0.304252 0.782168 0.25219
403 1 0.45789 0.797201 0.254067
1624 1 0.584876 0.796163 0.253097
1760 1 0.668259 0.825969 0.251135
1667 1 0.844312 0.782578 0.271052
532 1 0.974894 0.793959 0.268821
2017 1 0.130312 0.882181 0.239334
740 1 0.198899 0.847211 0.224478
1165 1 0.768951 0.850182 0.252061
1415 1 0.892576 0.861758 0.270258
1528 1 0.0183589 0.92346 0.23331
190 1 0.185516 0.939627 0.252571
531 1 0.367689 0.894856 0.225071
1814 1 0.442538 0.894031 0.255281
1842 1 0.795742 0.925941 0.251922
526 1 0.92802 0.929304 0.26036
820 1 0.0988636 0.955195 0.224687
1337 1 0.396021 0.976091 0.223131
577 1 0.501142 0.964992 0.235406
1746 1 0.565698 0.944667 0.274253
1820 1 0.719474 0.986254 0.271019
374 1 0.978796 0.993962 0.260344
719 1 0.0690264 0.00673507 0.279019
483 1 0.229414 0.0489359 0.303653
265 1 0.675605 0.0445719 0.305869
1864 1 0.77007 0.0284978 0.319036
734 1 0.843059 0.0064751 0.304537
1453 1 0.999693 0.0492766 0.322523
1632 1 0.0837816 0.0757562 0.310916
888 1 0.162865 0.087375 0.29069
1516 1 0.294608 0.0914715 0.305627
1909 1 0.447931 0.0780584 0.331936
843 1 0.510983 0.0661894 0.287382
819 1 0.589086 0.0859534 0.327054
936 1 0.850734 0.0918303 0.311845
1429 1 0.0218389 0.126672 0.322232
931 1 0.110792 0.156948 0.294646
1233 1 0.37963 0.122565 0.287159
733 1 0.480678 0.143422 0.297564
600 1 0.559173 0.16024 0.318546
960 1 0.648826 0.122355 0.292241
1405 1 0.727579 0.139507 0.305268
671 1 0.88167 0.16354 0.320142
97 1 0.0470829 0.204879 0.314117
1607 1 0.178042 0.201028 0.299836
1625 1 0.324934 0.178924 0.296934
771 1 0.406233 0.186819 0.321494
1203 1 0.702913 0.218115 0.297952
1226 1 0.964 0.201116 0.316649
435 1 0.113746 0.245816 0.285085
736 1 0.277238 0.252051 0.31576
549 1 0.419053 0.26446 0.322296
569 1 0.586565 0.259182 0.300165
684 1 0.759439 0.271646 0.278245
1353 1 0.842052 0.229744 0.290154
1542 1 0.0670816 0.298643 0.313335
666 1 0.19511 0.298005 0.312401
1727 1 0.288088 0.323209 0.285547
1799 1 0.65619 0.286185 0.313205
1669 1 0.873092 0.300447 0.289767
238 1 0.945091 0.324155 0.285084
688 1 0.0242074 0.362484 0.291293
338 1 0.141671 0.355473 0.316569
1704 1 0.36143 0.344431 0.278048
1263 1 0.490732 0.364382 0.330662
1658 1 0.595476 0.363888 0.290214
488 1 0.684752 0.349709 0.279178
1969 1 0.778723 0.359313 0.282702
1808 1 0.876239 0.377959 0.301218
968 1 0.0888605 0.408922 0.291878
1084 1 0.163408 0.440507 0.293083
1843 1 0.23176 0.421488 0.327204
1369 1 0.306762 0.394646 0.307648
1599 1 0.447728 0.42248 0.299427
927 1 0.548748 0.430331 0.29847
1158 1 0.640379 0.436861 0.288683
1593 1 0.722477 0.429212 0.280969
173 1 0.812849 0.424263 0.315639
295 1 0.951375 0.396441 0.317889
1985 1 0.0131346 0.447104 0.296206
2026 1 0.215404 0.499054 0.320255
2013 1 0.294892 0.476252 0.28054
748 1 0.376846 0.497175 0.29652
1585 1 0.607815 0.499516 0.329525
562 1 0.938793 0.488886 0.296345
1480 1 0.0785072 0.541687 0.30987
1246 1 0.522937 0.508045 0.325651
905 1 0.73768 0.521379 0.316834
1815 1 0.0401454 0.60897 0.318679
837 1 0.247015 0.558426 0.278567
390 1 0.328096 0.558225 0.280206
1227 1 0.442078 0.562261 0.312242
137 1 0.575053 0.563203 0.295721
2027 1 0.66914 0.562467 0.316508
195 1 0.797662 0.580084 0.300655
55 1 0.937964 0.567109 0.321923
1078 1 0.191687 0.638171 0.282919
1395 1 0.395431 0.629892 0.306141
1125 1 0.569514 0.650541 0.30333
667 1 0.886012 0.626702 0.302674
1589 1 0.123824 0.685001 0.298749
635 1 0.25806 0.720406 0.301831
581 1 0.74453 0.709425 0.324013
253 1 0.856945 0.711128 0.299259
234 1 0.975575 0.689723 0.278036
1000 1 0.171798 0.747741 0.327155
1591 1 0.378479 0.764715 0.282965
1939 1 0.550071 0.725056 0.292096
130 1 0.648815 0.753661 0.282502
1548 1 0.0424181 0.816579 0.300962
1051 1 0.163357 0.824788 0.299883
1377 1 0.523485 0.808535 0.293034
551 1 0.738954 0.790256 0.295484
1485 1 0.908604 0.790598 0.31137
1457 1 0.0651586 0.887794 0.281937
1657 1 0.281857 0.847036 0.293436
1954 1 0.388991 0.840885 0.283838
1789 1 0.598935 0.866052 0.293513
31 1 0.829511 0.855485 0.316737
176 1 0.985073 0.875942 0.282371
1523 1 0.00420296 0.944407 0.314882
1549 1 0.117708 0.940877 0.309756
796 1 0.193986 0.89825 0.320496
1689 1 0.260021 0.92691 0.279024
1046 1 0.337981 0.931575 0.292338
616 1 0.507634 0.890365 0.289084
764 1 0.679162 0.894842 0.2942
999 1 0.751349 0.922965 0.313918
1391 1 0.871226 0.928304 0.313165
735 1 0.299108 0.99907 0.302318
2018 1 0.425017 0.955088 0.301211
1553 1 0.511467 0.978557 0.332634
1663 1 0.63809 0.965441 0.278165
446 1 0.928644 0.987649 0.3171
1481 1 0.117199 0.0117759 0.347208
1253 1 0.325893 0.0449907 0.370475
985 1 0.406275 0.0325866 0.381201
659 1 0.648849 0.0214513 0.378715
417 1 0.832069 0.0443928 0.370124
1413 1 0.172964 0.0605187 0.357928
1819 1 0.251795 0.057149 0.386928
131 1 0.653379 0.10154 0.370854
1252 1 0.720132 0.061789 0.374061
1344 1 0.782605 0.104082 0.346964
605 1 0.924522 0.0759736 0.33959
398 1 0.185845 0.139344 0.349594
2033 1 0.289726 0.127002 0.381264
212 1 0.363954 0.112538 0.364853
165 1 0.450596 0.13913 0.384479
556 1 0.521684 0.111509 0.363881
370 1 0.725442 0.141162 0.387484
1234 1 0.966282 0.164524 0.38577
1869 1 0.0468206 0.171213 0.386853
35 1 0.121514 0.20232 0.355672
752 1 0.250009 0.187771 0.344625
1467 1 0.340553 0.188647 0.373966
664 1 0.486978 0.201949 0.348637
691 1 0.63123 0.181994 0.343209
1142 1 0.782734 0.18746 0.334083
587 1 0.0685416 0.259635 0.384959
156 1 0.202192 0.243416 0.369243
1007 1 0.348972 0.263549 0.346511
459 1 0.521254 0.277146 0.334088
1111 1 0.594973 0.242747 0.377884
539 1 0.685431 0.232223 0.370512
660 1 0.847809 0.228234 0.369442
1754 1 0.249688 0.307744 0.371095
1602 1 0.463123 0.298323 0.380757
243 1 0.732386 0.314339 0.344555
1004 1 0.811439 0.316141 0.342452
1115 1 0.902356 0.331051 0.35641
342 1 0.992446 0.286525 0.338786
1665 1 0.0889255 0.346141 0.377516
1722 1 0.196464 0.364555 0.366941
716 1 0.323555 0.338665 0.3629
1788 1 0.406886 0.350815 0.344824
1783 1 0.567374 0.336785 0.361782
1724 1 0.650376 0.370726 0.347079
1942 1 0.829697 0.380899 0.383054
1303 1 0.0251651 0.397148 0.372209
1434 1 0.131188 0.415849 0.365302
529 1 0.37707 0.426388 0.334609
160 1 0.43781 0.406161 0.38552
1931 1 0.596064 0.42966 0.362298
1899 1 0.680738 0.443555 0.35658
580 1 0.747427 0.392297 0.352171
1745 1 0.0700859 0.462083 0.350041
1900 1 0.137427 0.499489 0.346344
155 1 0.288914 0.461517 0.363246
472 1 0.360703 0.488335 0.375546
139 1 0.441485 0.497289 0.356048
1189 1 0.756732 0.466139 0.371906
312 1 0.88192 0.445712 0.33834
715 1 0.971966 0.45865 0.381731
847 1 0.0034812 0.55142 0.355277
1605 1 0.290991 0.55054 0.359492
1043 1 0.820284 0.50516 0.335752
938 1 0.907067 0.502402 0.383461
1538 1 0.122361 0.580661 0.358738
1809 1 0.199716 0.577999 0.342821
34 1 0.370697 0.561775 0.34706
1964 1 0.510127 0.585652 0.336667
418 1 0.612821 0.560656 0.374783
1334 1 0.776651 0.566243 0.384388
362 1 0.865901 0.571785 0.350431
757 1 0.0991504 0.655495 0.381603
1775 1 0.174274 0.663515 0.355404
1096 1 0.250425 0.636392 0.360029
872 1 0.324696 0.628728 0.347336
1357 1 0.49079 0.666083 0.342008
1410 1 0.597235 0.637826 0.374767
477 1 0.66466 0.663217 0.34045
1489 1 0.735643 0.625708 0.337655
437 1 0.806632 0.651573 0.348126
1331 1 0.945353 0.64855 0.355675
1545 1 0.0408381 0.686749 0.341712
1206 1 0.344161 0.703508 0.348946
1473 1 0.417367 0.670665 0.375704
1422 1 0.604357 0.712408 0.34456
1248 1 0.885082 0.704631 0.372606
1821 1 0.0935573 0.770627 0.350287
348 1 0.310094 0.776 0.336316
696 1 0.450576 0.740419 0.348088
1583 1 0.530008 0.746766 0.366363
1335 1 0.673982 0.740511 0.354703
162 1 0.815434 0.767796 0.343841
963 1 0.965919 0.728922 0.351348
1105 1 0.154096 0.804003 0.385127
1767 1 0.235282 0.793232 0.349188
1104 1 0.384124 0.792965 0.365643
533 1 0.45719 0.818127 0.336166
647 1 0.533789 0.829841 0.369435
1904 1 0.596288 0.790809 0.343518
1437 1 0.746758 0.783049 0.385233
1763 1 0.894153 0.783933 0.386433
1017 1 0.983895 0.814483 0.354983
555 1 0.0140859 0.887323 0.362665
167 1 0.104309 0.864419 0.352657
791 1 0.336876 0.854351 0.35026
1997 1 0.416374 0.885743 0.341577
7 1 0.659783 0.844024 0.355017
252 1 0.747772 0.852443 0.340468
1346 1 0.933952 0.875464 0.342463
1768 1 0.267948 0.895694 0.374875
1711 1 0.488001 0.897801 0.367437
1284 1 0.570138 0.906451 0.374241
768 1 0.656222 0.924683 0.366178
1951 1 0.738759 0.90959 0.388734
1360 1 0.814873 0.891086 0.386793
350 1 0.0613292 0.947289 0.384587
1151 1 0.151761 0.946268 0.378171
598 1 0.212203 0.980801 0.346979
1291 1 0.350122 0.969354 0.362324
823 1 0.443004 0.963336 0.376721
18 1 0.588154 0.978137 0.346387
447 1 0.712786 0.979504 0.3537
637 1 0.800415 0.969396 0.362287
731 1 0.994146 0.989116 0.38409
1239 1 0.0543848 0.0440361 0.392567
44 1 0.184403 0.0222427 0.432467
310 1 0.482008 0.0439329 0.392473
653 1 0.562623 0.0436256 0.38949
990 1 0.901603 0.0122596 0.392595
1764 1 0.10561 0.106004 0.390068
1697 1 0.189832 0.0979186 0.427916
232 1 0.351213 0.083346 0.44029
4 1 0.590165 0.103234 0.432988
763 1 0.698041 0.0928194 0.444174
79 1 0.774523 0.0773636 0.438744
376 1 0.98031 0.078117 0.39517
1015 1 0.510231 0.131681 0.442577
2025 1 0.80752 0.151705 0.419198
1327 1 0.877979 0.121168 0.391883
17 1 0.143561 0.221865 0.430243
1859 1 0.205073 0.1775 0.413087
630 1 0.398938 0.177467 0.439396
725 1 0.494493 0.206844 0.429125
1556 1 0.562122 0.172388 0.396646
1935 1 0.64307 0.173096 0.418756
1578 1 0.911988 0.19725 0.426525
439 1 0.256399 0.241278 0.421314
1716 1 0.41303 0.243254 0.397182
943 1 0.533128 0.270105 0.412007
1509 1 0.775351 0.222384 0.413524
282 1 0.932073 0.268492 0.396859
1614 1 0.999434 0.229779 0.418478
1706 1 0.00826798 0.306234 0.415008
1672 1 0.168692 0.306358 0.410851
330 1 0.326777 0.287644 0.424748
1913 1 0.403894 0.324126 0.422347
991 1 0.600903 0.311989 0.432564
1288 1 0.674105 0.316906 0.397834
1131 1 0.776478 0.326852 0.414666
1490 1 0.861674 0.300079 0.416547
1463 1 0.12797 0.378787 0.434574
1176 1 0.266794 0.386937 0.389477
510 1 0.524975 0.372407 0.42385
292 1 0.63146 0.387919 0.421738
442 1 0.94551 0.340055 0.443804
1062 1 0.198505 0.442974 0.402639
2040 1 0.353446 0.413855 0.422361
157 1 0.569781 0.4341 0.437106
302 1 0.776051 0.407318 0.43741
146 1 0.915279 0.408172 0.401552
1973 1 0.0769615 0.455665 0.434912
420 1 0.270541 0.449743 0.444194
306 1 0.513601 0.446787 0.389183
708 1 0.706856 0.457359 0.437133
1694 1 0.850498 0.454331 0.421485
730 1 0.0659522 0.527176 0.396845
1844 1 0.141874 0.52147 0.429521
326 1 0.226401 0.538528 0.417597
1984 1 0.408578 0.5415 0.42307
1496 1 0.486358 0.517256 0.428735
280 1 0.56059 0.510172 0.398262
1372 1 0.639628 0.505682 0.428199
1216 1 0.708481 0.526178 0.393536
28 1 0.0900783 0.593825 0.428526
910 1 0.177709 0.60114 0.412399
1634 1 0.260168 0.609877 0.428515
848 1 0.337219 0.600527 0.425728
328 1 0.447893 0.606814 0.413158
1519 1 0.562524 0.580888 0.431784
216 1 0.929354 0.589683 0.407108
1276 1 0.0133023 0.620112 0.392766
1127 1 0.518306 0.645811 0.427601
107 1 0.673344 0.613344 0.395031
1677 1 0.752469 0.635695 0.420622
1877 1 0.841358 0.612376 0.415405
169 1 0.89998 0.660696 0.438346
563 1 0.189074 0.673504 0.438441
1890 1 0.235836 0.717991 0.389775
1378 1 0.297559 0.674541 0.407842
958 1 0.48269 0.705579 0.409696
458 1 0.594948 0.695249 0.431658
85 1 0.718422 0.704483 0.430889
5 1 0.788093 0.714482 0.395817
166 1 0.971272 0.678923 0.422134
941 1 0.0318488 0.743035 0.394627
1211 1 0.139317 0.728754 0.398091
1099 1 0.320209 0.758417 0.412825
363 1 0.393565 0.726402 0.425839
541 1 0.452635 0.776932 0.419734
695 1 0.630107 0.76194 0.420607
123 1 0.953593 0.756566 0.424924
499 1 0.262068 0.810346 0.418698
404 1 0.555847 0.780668 0.438435