ITEM: TIMESTEP
100000
ITEM: NUMBER OF ATOMS
2048
ITEM: BOX BOUNDS pp pp pp
0.0000000000000000e+00 1.2699208415745595e+01
0.0000000000000000e+00 1.2699208415745595e+01
0.0000000000000000e+00 1.2699208415745595e+01
ITEM: ATOMS id type xs ys zs
1265 1 0.18302 0.175336 0.0804681
1690 1 0.228006 0.106582 0.0722715
1648 1 0.301498 0.10112 0.057175
529 1 0.915994 0.901337 0.00376923
1190 1 0.88228 0.0056503 0.0694475
1243 1 0.874996 0.0676914 0.00484462
80 1 0.834117 0.964624 0.117282
461 1 0.210156 0.975625 0.0696384
163 1 0.237851 0.139685 0.749927
1004 1 0.128485 0.168489 0.135094
174 1 0.438211 0.155862 0.10343
1274 1 0.521416 0.1186 0.0431974
1884 1 0.901922 0.0667406 0.934526
1063 1 0.95784 0.00630085 0.981073
1342 1 0.0359596 0.293294 0.218263
203 1 0.133783 0.13446 0.0366114
614 1 0.28997 0.294391 0.0870646
2014 1 0.714552 0.0998724 0.0233849
1443 1 0.796729 0.145837 0.095018
1543 1 0.956563 0.0813619 0.00263656
1062 1 0.987689 0.334763 0.0477435
1555 1 0.331376 0.143221 0.994681
273 1 0.476768 0.184687 0.0111162
1797 1 0.668924 0.0724842 0.964026
624 1 0.804254 0.0489289 0.102825
917 1 0.611505 0.153544 0.0272204
1909 1 0.0394857 0.281594 0.147412
532 1 0.956572 0.265387 0.0868932
1763 1 0.171288 0.214857 0.00558805
394 1 0.197918 0.283993 0.0019372
860 1 0.415709 0.153785 0.974496
391 1 0.700685 0.315528 0.963258
392 1 0.57748 0.0947011 0.088283
725 1 0.55209 0.212102 0.998459
1526 1 0.796513 0.290142 0.0721892
1245 1 0.811903 0.0886373 0.958901
361 1 0.252325 0.278331 0.926506
1377 1 0.413128 0.296579 0.941748
625 1 0.371668 0.418208 0.995899
1623 1 0.555688 0.351365 0.141751
347 1 0.0308285 0.362204 0.123411
856 1 0.340519 0.345842 0.973945
357 1 0.329696 0.259427 0.961229
344 1 0.540943 0.417563 0.296586
1321 1 0.763834 0.321371 0.133303
936 1 0.943422 0.411038 0.0366431
702 1 0.00981064 0.371402 0.89105
145 1 0.320944 0.490787 0.896964
2025 1 0.456092 0.381255 0.866958
730 1 0.624477 0.404335 0.986674
1334 1 0.624872 0.503054 0.156028
1329 1 0.0098226 0.43505 0.997905
171 1 0.859061 0.446615 0.0311112
670 1 0.305257 0.474119 0.976245
1821 1 0.764615 0.402309 0.964495
1069 1 0.891568 0.614374 0.0161374
406 1 0.0228509 0.447094 0.897596
1541 1 0.229534 0.61726 0.929263
1198 1 0.373205 0.600912 0.107252
1244 1 0.487981 0.504661 0.075574
1007 1 0.585628 0.568169 0.189586
1807 1 0.738608 0.530266 0.317267
1151 1 0.938349 0.569947 0.0750973
403 1 0.360086 0.64155 0.0372247
271 1 0.763164 0.544431 0.98825
82 1 0.834156 0.70124 0.877046
274 1 0.294584 0.590641 0.0955314
1459 1 0.561525 0.600847 0.99207
104 1 0.530252 0.701693 0.12902
1396 1 0.550914 0.528151 0.0142215
588 1 0.697553 0.561092 0.113541
1576 1 0.825794 0.600227 0.887489
330 1 0.0526083 0.514591 0.976629
1039 1 0.172496 0.778999 0.820039
425 1 0.227984 0.704009 0.861685
515 1 0.278967 0.804207 0.154651
839 1 0.830093 0.663969 0.0653512
1700 1 0.00227743 0.595469 0.0447369
1614 1 0.293741 0.826164 0.0743369
404 1 0.407337 0.702033 0.0277414
1777 1 0.532512 0.635369 0.0588614
507 1 0.551414 0.678398 0.994563
600 1 0.834896 0.817714 0.910594
1023 1 0.975354 0.708935 0.155977
1896 1 0.1115 0.742228 0.0785816
1230 1 0.186062 0.70442 0.953887
879 1 0.41101 0.767671 0.981456
208 1 0.455532 0.839582 0.998801
818 1 0.580964 0.736787 0.0805037
471 1 0.167503 0.98059 0.0063412
1847 1 0.321737 0.893258 0.0313403
2033 1 0.377183 0.81836 0.0564439
250 1 0.415155 0.882083 0.0870948
1192 1 0.842998 0.894467 0.975858
1887 1 0.912482 0.771015 0.133456
1518 1 0.989107 0.952333 0.0554243
2044 1 0.362824 0.837962 0.937731
1298 1 0.501285 0.74223 0.0298508
1295 1 0.776903 0.76844 0.0374512
1048 1 0.903273 0.831132 0.95148
2015 1 0.0887137 0.832546 0.171337
1121 1 0.245827 0.953125 0.972271
956 1 0.43061 0.930397 0.147769
1365 1 0.70007 0.810753 0.997661
1029 1 0.895142 0.925966 0.0822145
880 1 0.999157 0.819696 0.960525
331 1 0.0678902 0.989752 0.88123
2034 1 0.313331 0.0327281 0.986282
1604 1 0.426389 0.0149834 0.180022
616 1 0.71477 0.889851 0.930459
338 1 0.983772 0.029287 0.0615332
1732 1 0.209241 0.142392 0.975972
350 1 0.582586 0.00788941 0.0435804
1563 1 0.606774 0.0708663 0.0102849
1978 1 0.0420477 0.903276 0.0777095
223 1 0.030473 0.0897978 0.222284
749 1 0.056588 0.151055 0.0922987
1222 1 0.376024 0.191364 0.129084
894 1 0.32589 0.0904665 0.135891
579 1 0.879736 0.993793 0.978395
227 1 0.860431 0.103374 0.0796807
449 1 0.962652 0.100347 0.0805475
1737 1 0.0560678 0.17686 0.16476
850 1 0.299805 0.161569 0.0994446
1058 1 0.35742 0.269962 0.101257
81 1 0.509696 0.269885 0.0590659
2047 1 0.513197 0.937904 0.138692
401 1 0.602523 0.151892 0.151417
136 1 0.908282 0.281255 0.937977
307 1 0.397211 0.249359 0.00299536
113 1 0.618522 0.18637 0.235887
99 1 0.573652 0.317269 0.0756386
937 1 0.653775 0.182792 0.0904783
407 1 0.9093 0.137478 0.132439
314 1 0.847022 0.275489 0.281356
775 1 0.119293 0.213209 0.0689495
1944 1 0.455126 0.427031 0.995733
482 1 0.469976 0.243768 0.95821
867 1 0.899472 0.245585 0.1459
638 1 0.0870813 0.229682 0.209324
1489 1 0.169948 0.279429 0.0891291
1932 1 0.552031 0.359427 0.00384482
383 1 0.849973 0.187681 0.134472
539 1 0.893947 0.327227 0.154585
1189 1 0.0548539 0.328983 0.0203122
814 1 0.334699 0.431916 0.2503
993 1 0.479471 0.45966 0.139891
1921 1 0.503422 0.343375 0.0848695
762 1 0.97867 0.43726 0.169687
1663 1 0.446777 0.607328 0.075201
1632 1 0.543659 0.508283 0.132432
673 1 0.658151 0.440083 0.0502216
741 1 0.789084 0.489681 0.0350802
110 1 0.828545 0.343908 0.998845
1068 1 0.0862279 0.388163 0.0641126
1660 1 0.216626 0.425869 0.0273428
1297 1 0.273189 0.537299 0.0195102
427 1 0.354005 0.552242 0.267731
815 1 0.589247 0.650513 0.220065
1383 1 0.741007 0.477323 0.0931625
326 1 0.934876 0.540835 0.00171299
144 1 0.338455 0.571588 0.0383024
1523 1 0.414251 0.513684 0.0982534
1933 1 0.593015 0.482581 0.0796548
1035 1 0.584669 0.632777 0.911685
1963 1 0.609293 0.478681 0.00211306
530 1 0.940581 0.457574 0.975889
1000 1 0.81588 0.588636 0.0187324
1479 1 0.114968 0.413558 0.996606
50 1 0.196263 0.523224 0.194365
1675 1 0.166216 0.694815 0.101992
210 1 0.343355 0.484243 0.125695
846 1 0.395994 0.703842 0.112898
1100 1 0.409098 0.62295 0.983515
34 1 0.599503 0.653631 0.0990105
845 1 0.664093 0.612524 0.169427
1487 1 0.822915 0.614965 0.120962
201 1 0.966054 0.537582 0.173824
965 1 0.203187 0.570393 0.991226
1788 1 0.2693 0.637754 0.181388
1328 1 0.961671 0.668083 0.0636451
231 1 0.328514 0.666595 0.124377
424 1 0.434141 0.764454 0.0612728
1300 1 0.721108 0.704308 0.168631
735 1 0.015933 0.579763 0.970628
797 1 0.0824009 0.675668 0.125876
562 1 0.00869746 0.427529 0.257088
1866 1 0.270041 0.754515 0.0333711
1038 1 0.212831 0.833399 0.116949
1773 1 0.96149 0.75101 0.0798783
1952 1 0.332785 0.791446 0.995353
541 1 0.415068 0.836541 0.15406
1636 1 0.5219 0.61916 0.130958
566 1 0.573411 0.813498 0.083698
332 1 0.632933 0.827234 0.0357361
1916 1 0.886344 0.572789 0.136962
809 1 0.880054 0.677503 0.940729
1386 1 0.84318 0.704632 0.20602
1977 1 0.845763 0.707978 0.129828
792 1 0.947573 0.861521 0.0844663
438 1 0.161516 0.825691 0.989385
59 1 0.109012 0.0259078 0.0293292
132 1 0.320976 0.948458 0.937067
1428 1 0.476952 0.82619 0.087688
717 1 0.53297 0.84312 0.010144
1278 1 0.121988 0.91659 0.00180107
1061 1 0.0834145 0.849709 0.0496637
378 1 0.172014 0.97919 0.919367
1447 1 0.283376 0.958949 0.077462
440 1 0.410653 0.949884 0.0520949
343 1 0.644213 0.877071 0.1277
907 1 0.882885 0.936655 0.92012
172 1 0.136798 0.966562 0.0934917
122 1 0.398183 0.0929497 0.100947
1287 1 0.669142 0.0368939 0.0576393
912 1 0.773202 0.856252 0.982063
1897 1 0.775073 0.987125 0.0731649
184 1 0.96852 0.916833 0.198748
2037 1 0.727337 0.00656682 0.0198554
1034 1 0.964312 0.065182 0.181209
1810 1 0.0820343 0.944629 0.135637
1252 1 0.259913 0.0976887 0.222474
720 1 0.381943 0.153993 0.0539491
263 1 0.495326 0.210198 0.115357
70 1 0.513702 0.972773 0.06218
573 1 0.764521 0.168417 0.181024
700 1 0.264875 0.0355391 0.0730644
311 1 0.0964192 0.0722114 0.252587
1848 1 0.69981 0.116472 0.184268
748 1 0.654613 0.0337323 0.134301
1362 1 0.794471 0.187945 0.02059
323 1 0.851278 0.0817455 0.157033
970 1 0.93566 0.353109 0.279003
125 1 0.981784 0.174618 0.0978893
1834 1 0.301417 0.200007 0.171068
1656 1 0.289135 0.168857 0.245413
1394 1 0.348381 0.346224 0.2326
1772 1 0.073749 0.157187 0.243637
1804 1 0.110477 0.304401 0.178188
1464 1 0.166688 0.235608 0.157881
1404 1 0.405729 0.330358 0.0200372
2024 1 0.596377 0.262754 0.128666
989 1 0.0118355 0.36319 0.19543
418 1 0.337475 0.2782 0.205046
127 1 0.48162 0.326366 0.0160838
1305 1 0.486908 0.302581 0.149505
1500 1 0.790339 0.304548 0.212243
866 1 0.728747 0.390334 0.165264
1400 1 0.757946 0.344149 0.0278945
1233 1 0.978253 0.237249 0.153771
798 1 0.239768 0.234266 0.137773
801 1 0.312491 0.434927 0.178548
1681 1 0.428982 0.224395 0.0659517
552 1 0.617963 0.323987 0.988641
1060 1 0.726647 0.403005 0.0781662
1388 1 0.212369 0.49321 0.881997
12 1 0.29754 0.416309 0.0279293
693 1 0.49078 0.386043 0.154462
1651 1 0.476712 0.560043 0.12863
322 1 0.720044 0.46089 0.0103411
1317 1 0.970935 0.312714 0.159952
1972 1 0.255373 0.464422 0.0767184
1822 1 0.171557 0.496156 0.0503859
1618 1 0.341296 0.345085 0.068885
1758 1 0.805397 0.402789 0.0633058
1922 1 0.998659 0.498849 0.0414367
609 1 0.0840855 0.6435 0.0346266
1215 1 0.10241 0.50913 0.101194
1687 1 0.239549 0.675332 0.110079
387 1 0.75491 0.562192 0.0646379
442 1 0.696481 0.385566 0.00628503
1738 1 0.794056 0.43132 0.1664
962 1 0.328775 0.587587 0.172917
606 1 0.395415 0.615238 0.220786
57 1 0.0812717 0.460975 0.0408135
1395 1 0.17154 0.685271 0.177297
1097 1 0.445447 0.636357 0.144167
207 1 0.299363 0.655717 0.24911
1440 1 0.656811 0.550133 0.231842
969 1 0.687264 0.771604 0.101984
1871 1 0.894161 0.495519 0.139476
97 1 0.997505 0.478649 0.310746
494 1 0.930781 0.580551 0.938339
214 1 0.0215537 0.508173 0.1287
417 1 0.0735088 0.775578 0.0020762
795 1 0.352003 0.744369 0.0577642
2041 1 0.671744 0.626736 0.0806768
591 1 0.745003 0.61845 0.12424
1242 1 0.810205 0.647311 0.973953
1912 1 0.0351778 0.78894 0.111036
1286 1 0.140639 0.769037 0.149854
3 1 0.262529 0.826854 0.00761659
264 1 0.33348 0.714781 0.991796
820 1 0.551248 0.77976 0.152525
94 1 0.817827 0.530137 0.137299
320 1 0.797041 0.830162 0.160917
971 1 0.927137 0.703125 0.996394
1886 1 0.964299 0.613675 0.145787
790 1 0.0514698 0.756665 0.243132
842 1 0.121162 0.873291 0.110668
938 1 0.147162 0.772928 0.227202
991 1 0.292583 0.864113 0.204147
1986 1 0.379047 0.888321 0.274549
2035 1 0.570963 0.921566 0.207698
668 1 0.71747 0.982679 0.119659
817 1 0.897599 0.656618 0.164981
154 1 0.807038 0.858767 0.277764
982 1 0.994508 0.874899 0.00958236
222 1 0.213659 0.867382 0.047828
1178 1 0.28943 0.878146 0.955937
267 1 0.555735 0.0110843 0.127872
221 1 0.587052 0.800709 0.217392
1512 1 0.787128 0.750752 0.166648
238 1 0.831648 0.789947 0.0975589
1571 1 0.802319 0.909242 0.155366
181 1 0.0274194 0.849802 0.240838
607 1 0.20216 0.912734 0.108204
553 1 0.453424 0.085652 0.150639
16 1 0.486325 0.869218 0.157291
1510 1 0.689466 0.742343 0.967515
1594 1 0.899897 0.930594 0.168477
1843 1 0.0119002 0.853835 0.146517
1873 1 0.267286 0.190486 0.00113873
414 1 0.276866 0.105981 0.92646
408 1 0.495885 0.93001 0.214468
1984 1 0.387834 0.0318364 0.0123543
933 1 0.572737 0.893014 0.0670112
433 1 0.0166999 0.81081 0.0441144
549 1 0.993891 0.0119025 0.141153
964 1 0.139798 0.0238239 0.213244
1736 1 0.334606 0.13668 0.198594
237 1 0.619537 0.0938693 0.199969
926 1 0.832357 0.958446 0.0321153
400 1 0.757404 0.112218 0.36643
1257 1 0.837931 0.0863044 0.269628
1724 1 0.908255 0.114951 0.256119
464 1 0.261839 0.0129317 0.21206
18 1 0.387465 0.133958 0.254641
899 1 0.647812 0.0130597 0.247683
1589 1 0.981183 0.140729 0.16826
1299 1 0.764512 0.0904776 0.156009
501 1 0.426182 0.14235 0.192586
297 1 0.58794 0.332973 0.271263
881 1 0.705419 0.169706 0.240436
1753 1 0.888958 0.232362 0.233979
2048 1 0.915859 0.132537 0.337339
1 1 0.161994 0.148211 0.229476
509 1 0.211275 0.0532653 0.266514
1505 1 0.374105 0.20563 0.206014
1448 1 0.459749 0.300317 0.429144
1168 1 0.401456 0.345767 0.111175
1701 1 0.669697 0.220629 0.305337
1920 1 0.569025 0.286684 0.213478
766 1 0.94839 0.286999 0.241678
353 1 0.0206378 0.245823 0.352663
1072 1 0.133079 0.287453 0.261774
603 1 0.270644 0.386797 0.232309
972 1 0.538616 0.208086 0.178211
952 1 0.681383 0.301379 0.166609
1509 1 0.941628 0.371017 0.204766
1331 1 0.21691 0.19201 0.203495
1841 1 0.545634 0.419744 0.101185
1427 1 0.752508 0.243604 0.172422
1659 1 0.859771 0.339785 0.237434
1874 1 0.0763712 0.356507 0.243633
358 1 0.242835 0.391327 0.160324
1037 1 0.267855 0.311115 0.235375
1477 1 0.64324 0.391889 0.286852
900 1 0.698169 0.347152 0.221857
1754 1 0.106568 0.606952 0.10291
1232 1 0.47968 0.578071 0.207171
1083 1 0.530328 0.433384 0.0216882
1761 1 0.751591 0.561796 0.17612
1314 1 0.788374 0.517398 0.258914
1925 1 0.840287 0.225114 0.0681953
1276 1 0.232978 0.344094 0.0919293
232 1 0.404953 0.554013 0.178591
1031 1 0.387612 0.411852 0.16703
576 1 0.744977 0.576703 0.252394
1515 1 0.768529 0.445981 0.27908
1593 1 0.861325 0.549186 0.284069
1356 1 0.0706009 0.445167 0.12103
66 1 0.0635981 0.619705 0.263389
990 1 0.2395 0.601127 0.270334
455 1 0.279282 0.550898 0.224245
767 1 0.867321 0.519695 0.0722104
1780 1 0.904792 0.422761 0.160388
653 1 0.137997 0.557442 0.155247
927 1 0.36194 0.685327 0.204585
1114 1 0.486389 0.781324 0.235292
1990 1 0.600746 0.707476 0.152391
1134 1 0.825813 0.461554 0.102356
2027 1 0.889994 0.407555 0.323211
1578 1 0.16676 0.663972 0.0180289
292 1 0.214557 0.778931 0.1947
240 1 0.340989 0.757338 0.135378
902 1 0.554388 0.727768 0.212779
761 1 0.897133 0.636513 0.0913179
527 1 0.0315469 0.600914 0.116464
1999 1 0.109803 0.708927 0.215994
1419 1 0.067256 0.750344 0.163444
170 1 0.407268 0.758305 0.198424
352 1 0.841202 0.710038 0.00117722
925 1 0.895758 0.589513 0.213757
885 1 0.176724 0.749402 0.023106
13 1 0.339229 0.850899 0.131768
162 1 0.425515 0.789315 0.278242
1405 1 0.626126 0.795184 0.151913
192 1 0.669784 0.77509 0.223256
1228 1 0.74656 0.711106 0.0935083
282 1 0.813734 0.575221 0.350156
851 1 0.0976073 0.82167 0.263101
1180 1 0.149086 0.921961 0.167996
226 1 0.881737 0.494278 0.336851
743 1 0.862152 0.79103 0.222126
1216 1 0.0638786 0.893704 0.309129
430 1 0.172338 0.825614 0.286932
164 1 0.349659 0.916408 0.198429
266 1 0.616158 0.938596 0.263193
1350 1 0.675041 0.8714 0.256587
1721 1 0.870999 0.653693 0.258386
755 1 0.222716 0.94232 0.183644
477 1 0.256628 0.0594876 0.147409
489 1 0.272774 0.899625 0.133997
1771 1 0.342775 0.930509 0.109176
663 1 0.651388 0.964605 0.0833274
1748 1 0.586652 0.865655 0.271715
1670 1 0.72751 0.833875 0.0634182
995 1 0.715145 0.943935 0.184338
722 1 0.770945 0.97394 0.294489
1065 1 0.292891 0.972859 0.153964
299 1 0.344133 0.0384957 0.0781643
1961 1 0.348318 0.990039 0.212078
654 1 0.494181 0.899384 0.0633442
1545 1 0.801392 0.0384479 0.0206982
47 1 0.381982 0.0739843 0.201757
1815 1 0.0563126 0.905247 0.199438
24 1 0.130294 0.0658609 0.394204
636 1 0.253759 0.142205 0.156228
1307 1 0.478173 0.0782497 0.258236
1813 1 0.512767 0.134476 0.126769
1292 1 0.504891 0.0140672 0.186498
1323 1 0.731765 0.259756 0.246406
1095 1 0.914154 0.853932 0.153759
635 1 0.0635898 0.00686272 0.184943
235 1 0.109395 0.231951 0.371733
46 1 0.152289 0.099263 0.115834
520 1 0.149688 0.121298 0.299516
598 1 0.560359 0.178762 0.0887162
1502 1 0.597817 0.179703 0.314618
1914 1 0.516658 0.332929 0.339639
1024 1 0.17965 0.971578 0.268353
367 1 0.377341 0.415572 0.0785728
85 1 0.623314 0.115737 0.39572
904 1 0.824663 0.274002 0.152767
2031 1 0.00353874 0.314128 0.283668
978 1 0.139998 0.0327823 0.307612
876 1 0.41484 0.264168 0.240598
43 1 0.424716 0.259923 0.136243
1683 1 0.682407 0.308521 0.288269
1713 1 0.915323 0.162351 0.200024
510 1 0.205075 0.464944 0.141186
1163 1 0.291914 0.406008 0.101838
1742 1 0.721983 0.288577 0.35646
1568 1 0.11575 0.337531 0.446994
615 1 0.112419 0.45247 0.254313
1666 1 0.270278 0.323372 0.0146157
1756 1 0.343756 0.500638 0.208726
1983 1 0.279458 0.370557 0.311574
1435 1 0.553699 0.504344 0.221653
279 1 0.647066 0.36731 0.123014
143 1 0.923532 0.40601 0.467713
1573 1 0.928349 0.430579 0.256117
119 1 0.326288 0.238644 0.360338
857 1 0.39721 0.406603 0.297168
1989 1 0.452237 0.41199 0.230898
1692 1 0.714183 0.499791 0.248136
1605 1 0.674019 0.437809 0.13063
1001 1 0.0269495 0.514848 0.369977
985 1 0.129151 0.467322 0.180183
1703 1 0.330706 0.431742 0.334126
254 1 0.825162 0.360656 0.163785
1241 1 0.0568606 0.427493 0.194515
661 1 0.123726 0.540324 0.227721
351 1 0.221512 0.53913 0.11381
505 1 0.52627 0.592567 0.26866
540 1 0.624117 0.43784 0.226953
1947 1 0.871455 0.392815 0.411206
1580 1 0.706274 0.50039 0.169096
571 1 0.189137 0.450259 0.230326
495 1 0.134499 0.501704 0.985348
2043 1 0.228474 0.528963 0.277139
1735 1 0.420107 0.58612 0.342377
1256 1 0.458189 0.628168 0.283351
1105 1 0.845397 0.467063 0.279468
1600 1 0.930841 0.452516 0.385877
1830 1 0.223049 0.67414 0.234087
1975 1 0.255467 0.816746 0.271061
1802 1 0.459468 0.68912 0.0766921
556 1 0.944375 0.652462 0.226466
370 1 0.146521 0.591795 0.0400766
631 1 0.519339 0.858928 0.237172
821 1 0.785903 0.657386 0.179194
949 1 0.855623 0.503347 0.403081
156 1 0.0280611 0.648297 0.182357
1040 1 0.0479542 0.626347 0.385291
674 1 0.932298 0.650494 0.309549
645 1 0.113171 0.742512 0.286815
1936 1 0.351746 0.819181 0.270814
302 1 0.462452 0.766551 0.344724
1033 1 0.723923 0.649743 0.234001
1976 1 0.917453 0.573541 0.338948
1186 1 0.916411 0.726582 0.197064
2013 1 0.00247015 0.698081 0.258786
1096 1 0.478393 0.758751 0.129816
1129 1 0.656768 0.640714 0.271607
446 1 0.726999 0.611722 0.320462
1336 1 0.910323 0.719542 0.289113
457 1 0.251316 0.738354 0.359067
286 1 0.34943 0.80617 0.193638
384 1 0.653505 0.698946 0.214421
217 1 0.640751 0.946902 0.187446
535 1 0.726201 0.806253 0.163889
160 1 0.783303 0.797941 0.229375
20 1 0.933188 0.834849 0.241535
2038 1 0.132374 0.891743 0.282839
787 1 0.156315 0.859016 0.207324
337 1 0.9677 0.766312 0.249699
930 1 0.190181 0.00825914 0.158227
4 1 0.243389 0.859908 0.332641
1957 1 0.555009 0.995016 0.240482
1792 1 0.850184 0.862562 0.115404
829 1 0.957838 0.901511 0.285798
1812 1 0.945367 0.979543 0.315748
1988 1 0.284388 0.934792 0.227162
940 1 0.403323 0.0243402 0.261106
1935 1 0.55664 0.137271 0.213622
318 1 0.622901 0.870042 0.198953
421 1 0.658957 0.103947 0.1073
1625 1 0.255101 0.973494 0.399366
1926 1 0.196617 0.090576 0.179542
1110 1 0.403627 0.981777 0.404195
413 1 0.544099 0.0762868 0.168582
411 1 0.592045 0.251063 0.307824
828 1 0.745475 0.0836925 0.240728
512 1 0.947038 0.993618 0.210884
853 1 0.293707 0.0261153 0.287169
1406 1 0.227971 0.884382 0.246453
895 1 0.503501 0.0617752 0.0973705
1633 1 0.788126 0.0220632 0.213325
1686 1 0.195575 0.915663 0.323305
236 1 0.0669535 0.243115 0.29296
1722 1 0.328772 0.0871457 0.256663
1531 1 0.468101 0.176896 0.246511
1470 1 0.641375 0.106976 0.561594
1293 1 0.856493 0.99897 0.182718
491 1 0.995819 0.222435 0.227221
1552 1 0.0654876 0.302482 0.398965
328 1 0.478913 0.23235 0.471224
306 1 0.403526 0.352787 0.434012
1930 1 0.410574 0.330309 0.185617
1514 1 0.529585 0.116302 0.311966
913 1 0.654869 0.178614 0.368404
416 1 0.908472 0.0337189 0.137395
1259 1 0.406597 0.154795 0.364893
1391 1 0.657551 0.255835 0.234978
1070 1 0.816833 0.374981 0.285379
2040 1 0.859554 0.329758 0.342131
376 1 0.13606 0.206458 0.27422
642 1 0.463552 0.417927 0.0728221
1335 1 0.539228 0.42049 0.201935
434 1 0.4375 0.323805 0.331108
1355 1 0.476837 0.413175 0.347373
1458 1 0.976372 0.340979 0.440872
381 1 0.303124 0.338772 0.171964
364 1 0.672195 0.202028 0.439934
1217 1 0.053923 0.530331 0.29437
251 1 0.202172 0.316316 0.177488
910 1 0.268719 0.195938 0.315354
261 1 0.467704 0.502203 0.220574
1828 1 0.675467 0.355016 0.358071
1482 1 0.719121 0.412657 0.383756
1497 1 0.995802 0.389317 0.335682
1204 1 0.949613 0.37887 0.108516
1166 1 0.139547 0.353116 0.12759
1398 1 0.237328 0.449168 0.297077
1099 1 0.432661 0.544615 0.272863
88 1 0.585469 0.321708 0.402609
91 1 0.00473671 0.599145 0.323569
1397 1 0.279908 0.515143 0.154724
1818 1 0.657074 0.618838 0.362214
248 1 0.595049 0.58331 0.302462
1036 1 0.878974 0.409671 0.0886603
1052 1 0.162537 0.40219 0.292415
1856 1 0.0581412 0.367986 0.486438
769 1 0.369092 0.642554 0.371196
1137 1 0.525243 0.682797 0.355373
1554 1 0.955869 0.533322 0.390212
1808 1 0.19301 0.623462 0.141005
1043 1 0.3282 0.7459 0.239901
1430 1 0.295728 0.559706 0.316154
710 1 0.691615 0.695399 0.359858
2017 1 0.831231 0.495418 0.202529
1698 1 0.856544 0.761989 0.544146
799 1 0.172268 0.601104 0.227604
1547 1 0.147073 0.508735 0.289781
398 1 0.0996325 0.636171 0.194758
1467 1 0.284656 0.666683 0.336962
1454 1 0.366028 0.644346 0.293397
1846 1 0.508656 0.654745 0.21885
1092 1 0.797515 0.583503 0.463367
547 1 0.311034 0.492421 0.28999
73 1 0.857277 0.593419 0.412463
1408 1 0.038357 0.497938 0.215112
883 1 0.00772814 0.574591 0.43448
737 1 0.270662 0.72247 0.284513
258 1 0.449555 0.821093 0.395229
377 1 0.549459 0.772241 0.278947
1950 1 0.593618 0.829263 0.347049
2029 1 0.820317 0.581285 0.20064
1253 1 0.93957 0.501002 0.235948
659 1 0.19375 0.73615 0.283805
1838 1 0.281134 0.717632 0.161385
1162 1 0.660296 0.805894 0.296601
1553 1 0.880799 0.879114 0.274129
1407 1 0.838721 0.00607269 0.34192
1794 1 0.127386 0.885574 0.357475
1376 1 0.0604856 0.840065 0.377087
740 1 0.415103 0.941295 0.225214
334 1 0.435414 0.860639 0.234725
628 1 0.857797 0.868061 0.2015
2006 1 0.970283 0.0487122 0.265639
1449 1 0.305602 0.910562 0.419272
1595 1 0.433173 0.856569 0.325694
1801 1 0.603783 0.013253 0.185212
2002 1 0.713735 0.0319636 0.295281
1179 1 0.699209 0.0318658 0.196784
1234 1 0.990733 0.0775725 0.345904
692 1 0.117624 0.94871 0.228866
1418 1 0.299439 0.875623 0.286055
1116 1 0.720733 0.88534 0.138195
1833 1 0.625908 0.112912 0.283705
709 1 0.847177 0.0108019 0.27008
1239 1 0.110974 0.955026 0.317601
1878 1 0.381547 0.0145418 0.336247
1399 1 0.585014 0.0689622 0.34153
516 1 0.694603 0.964349 0.334982
1527 1 0.712589 0.125922 0.303274
83 1 0.948656 0.199056 0.289822
983 1 0.367868 0.0906342 0.331856
175 1 0.589597 0.940319 0.129279
1160 1 0.596829 0.204804 0.4535
324 1 0.785368 0.0543057 0.315764
976 1 0.859673 0.173199 0.284635
946 1 0.00274751 0.141613 0.289104
1664 1 0.297589 0.0973984 0.411814
1240 1 0.447075 0.119491 0.444506
1592 1 0.457252 0.132101 0.308053
1654 1 0.374847 0.204015 0.425918
810 1 0.568111 0.068361 0.248027
947 1 0.838551 0.152671 0.213403
1746 1 0.0915403 0.000258205 0.394305
2005 1 0.113067 0.26128 0.44381
1294 1 0.219794 0.147603 0.287656
1432 1 0.325844 0.158861 0.3793
1560 1 0.439331 0.231195 0.301319
1108 1 0.777412 0.146401 0.27196
1809 1 0.754912 0.215605 0.311376
465 1 0.920083 0.289381 0.31989
301 1 0.292351 0.261889 0.515719
804 1 0.420484 0.265554 0.379515
536 1 0.529699 0.276549 0.282548
1667 1 0.559528 0.185154 0.387176
584 1 0.822822 0.18641 0.376923
1393 1 0.0711401 0.391621 0.321656
658 1 0.602724 0.426282 0.153908
2028 1 0.628742 0.43209 0.37915
1680 1 0.673318 0.218071 0.165451
918 1 0.78388 0.303991 0.301633
313 1 0.816134 0.332857 0.411754
78 1 0.212514 0.250415 0.258231
1723 1 0.172255 0.257278 0.326745
1384 1 0.458977 0.473813 0.295448
1347 1 0.709945 0.317978 0.428257
1235 1 0.898544 0.391548 0.544887
107 1 0.125859 0.391084 0.192143
79 1 0.207777 0.377407 0.364944
1671 1 0.287435 0.342063 0.384005
1941 1 0.417096 0.427312 0.402244
1955 1 0.367486 0.291561 0.305494
1434 1 0.726586 0.372158 0.292268
1332 1 0.906066 0.484669 0.51215
1609 1 0.127499 0.37066 0.378613
1213 1 0.267146 0.474106 0.228909
613 1 0.401791 0.475485 0.247064
1279 1 0.41544 0.497453 0.372428
589 1 0.697719 0.426526 0.225747
441 1 0.690628 0.451558 0.322231
777 1 0.846214 0.415286 0.22395
951 1 0.110274 0.582254 0.330205
634 1 0.193462 0.358334 0.240284
656 1 0.460761 0.484651 0.445895
690 1 0.984074 0.438211 0.493629
1018 1 0.959412 0.495317 0.454818
542 1 0.173917 0.329292 0.315972
212 1 0.739715 0.621551 0.429837
317 1 0.800941 0.6595 0.46448
1564 1 0.929266 0.622668 0.399325
1769 1 0.19806 0.655046 0.311064
1413 1 0.344788 0.576772 0.46129
106 1 0.26627 0.483647 0.354125
1714 1 0.482236 0.719269 0.287517
1816 1 0.859865 0.756839 0.3748
1588 1 0.796693 0.629556 0.262941
612 1 0.859789 0.535972 0.470705
1511 1 0.348907 0.569379 0.378417
1806 1 0.421275 0.564981 0.42833
2022 1 0.859201 0.663196 0.347435
1214 1 0.852807 0.697544 0.422251
262 1 0.125091 0.667179 0.276137
1859 1 0.121073 0.798138 0.348405
1172 1 0.244368 0.591974 0.44802
1379 1 0.361806 0.726433 0.306693
884 1 0.464114 0.705979 0.182608
639 1 0.695097 0.712309 0.283965
701 1 0.77261 0.707689 0.24692
871 1 0.950158 0.583115 0.269955
1312 1 0.0466957 0.784478 0.328743
1098 1 0.18504 0.727878 0.405726
480 1 0.33238 0.736246 0.375565
420 1 0.654628 0.762693 0.373397
1969 1 0.975974 0.743066 0.332137
444 1 0.195908 0.80974 0.372366
1009 1 0.506438 0.834696 0.31011
1850 1 0.014318 0.958809 0.253326
1493 1 0.129844 0.83948 0.416832
499 1 0.39185 0.924211 0.364503
405 1 0.49249 0.897381 0.36901
1088 1 0.752037 0.893165 0.236882
649 1 0.838718 0.832239 0.39199
498 1 0.985018 0.831175 0.303813
558 1 0.988359 0.916808 0.359825
1011 1 0.0185011 0.998074 0.331482
140 1 0.288636 0.922905 0.342414
1849 1 0.347353 0.859071 0.346437
1125 1 0.442829 0.946192 0.307645
1272 1 0.819002 0.944256 0.236918
272 1 0.362208 0.964111 0.282722
372 1 0.44466 0.112983 0.0347089
1607 1 0.622854 0.0383783 0.398205
958 1 0.532649 0.915679 0.2947
8 1 0.780942 0.874614 0.358524
1628 1 0.720579 0.891377 0.313393
981 1 0.9776 0.955077 0.433693
1865 1 0.183085 0.991207 0.399108
1157 1 0.238551 0.0765805 0.462004
796 1 0.166391 0.167369 0.511688
1402 1 0.259533 0.0454243 0.363937
1254 1 0.777309 0.886183 0.51951
329 1 0.834956 0.115785 0.336873
1645 1 0.0629775 0.0617561 0.341835
284 1 0.247181 0.144246 0.370559
447 1 0.760833 0.964756 0.546182
1606 1 0.17685 0.17718 0.34872
1855 1 0.248563 0.960867 0.294491
630 1 0.185573 0.112839 0.421165
711 1 0.444861 0.0667791 0.344129
1635 1 0.388236 0.0289358 0.484703
51 1 0.548882 0.0145763 0.449131
293 1 0.760111 0.992903 0.468411
291 1 0.96389 0.193361 0.455069
1140 1 0.195693 0.0898495 0.348467
1891 1 0.300357 0.251528 0.435853
752 1 0.686631 0.0510116 0.36441
1795 1 0.0879594 0.468613 0.32508
2045 1 0.111126 0.355821 0.537391
1647 1 0.175036 0.339087 0.492232
840 1 0.436075 0.289589 0.51043
1544 1 0.543305 0.206698 0.255368
1586 1 0.49426 0.266033 0.213822
1495 1 0.637486 0.280346 0.446523
1457 1 0.740723 0.185747 0.475768
1960 1 0.743068 0.20212 0.384241
305 1 0.809881 0.261887 0.362848
1436 1 0.117745 0.503412 0.555073
168 1 0.201355 0.300739 0.401209
1992 1 0.560435 0.404494 0.415327
1691 1 0.241923 0.298528 0.318475
1174 1 0.647843 0.254028 0.370005
718 1 0.511692 0.269257 0.381698
705 1 0.299127 0.252065 0.268807
1066 1 0.219696 0.372506 0.443108
1260 1 0.554846 0.369947 0.502625
300 1 0.448396 0.342664 0.256403
423 1 0.792155 0.292785 0.485792
142 1 0.00581517 0.226276 0.518598
395 1 0.0541801 0.380551 0.39383
1857 1 0.240224 0.484481 0.423561
268 1 0.106688 0.299223 0.334796
365 1 0.533918 0.500959 0.294633
727 1 0.621603 0.47178 0.440361
1506 1 0.77157 0.362293 0.469361
415 1 0.992307 0.52564 0.528279
772 1 0.817962 0.427402 0.344371
1899 1 0.341481 0.49559 0.386859
2032 1 0.267951 0.423705 0.481679
242 1 0.485149 0.387146 0.417459
458 1 0.595247 0.371569 0.346182
109 1 0.699292 0.383702 0.579129
1538 1 0.613078 0.356363 0.194969
1494 1 0.0120951 0.443091 0.4034
622 1 0.325036 0.333791 0.463065
1643 1 0.498531 0.596824 0.340563
118 1 0.59211 0.651306 0.333679
1829 1 0.777396 0.487688 0.369486
1508 1 0.765325 0.357516 0.354272
1697 1 0.0344847 0.645863 0.459576
138 1 0.285673 0.541006 0.410881
29 1 0.408942 0.72258 0.392656
393 1 0.643409 0.536573 0.336613
1161 1 0.850661 0.448827 0.477678
667 1 0.061991 0.576257 0.484609
26 1 0.157043 0.630812 0.376031
2016 1 0.247054 0.590462 0.366816
560 1 0.129835 0.705918 0.354175
193 1 0.555664 0.68809 0.278559
1330 1 0.828107 0.717415 0.29595
1324 1 0.709346 0.820531 0.440768
198 1 0.921643 0.568366 0.453244
770 1 0.185082 0.565191 0.328474
1752 1 0.0616599 0.645108 0.531663
454 1 0.154454 0.732015 0.595725
644 1 0.42175 0.695456 0.254012
247 1 0.303967 0.624453 0.406673
35 1 0.605963 0.705797 0.388979
1159 1 0.246489 0.778222 0.421454
996 1 0.300929 0.559688 0.52414
712 1 0.790546 0.646946 0.375395
1907 1 0.915333 0.73588 0.497697
713 1 0.0101442 0.579375 0.220368
219 1 0.0598234 0.673298 0.321923
1218 1 0.385673 0.788457 0.354537
922 1 0.364293 0.755513 0.579493
641 1 0.619949 0.739545 0.29342
2019 1 0.586348 0.939924 0.444114
617 1 0.0254289 0.752009 0.399298
1911 1 0.299561 0.785999 0.329544
517 1 0.575412 0.908498 0.356192
1144 1 0.893389 0.810031 0.501858
215 1 0.215134 0.936437 0.464525
716 1 0.206273 0.88435 0.391916
1030 1 0.286781 0.861706 0.474645
750 1 0.331809 0.975976 0.377343
852 1 0.420334 0.849337 0.485897
1111 1 0.732713 0.781793 0.308107
723 1 0.937601 0.883688 0.43239
1169 1 0.897261 0.953069 0.474762
1089 1 0.0621549 0.920688 0.3909
2039 1 0.072533 0.00761708 0.277302
2007 1 0.377566 0.0581649 0.403173
665 1 0.641806 0.895086 0.32809
1147 1 0.895181 0.949778 0.245266
1164 1 0.284624 0.106122 0.314338
831 1 0.699444 0.837421 0.358279
855 1 0.890221 0.0514391 0.225332
90 1 0.110483 0.143576 0.390572
870 1 0.363916 0.95142 0.564507
1275 1 0.668409 0.0352785 0.565842
134 1 0.918859 0.0528106 0.329001
289 1 0.323878 0.177251 0.482253
1012 1 0.412909 0.09802 0.516109
1733 1 0.420174 0.953136 0.50218
1646 1 0.502014 0.196426 0.327052
782 1 0.695372 0.948053 0.263989
1195 1 0.688963 0.0101316 0.432844
1131 1 0.799459 0.216516 0.250969
863 1 0.961448 0.0265012 0.402376
1372 1 0.0853241 0.160172 0.479141
474 1 0.0415788 0.0792834 0.532279
1793 1 0.183775 0.121551 0.627534
1599 1 0.865531 0.0620155 0.381651
1107 1 0.0878077 0.160576 0.32071
1344 1 0.986491 0.312782 0.363396
166 1 0.0761542 0.227085 0.540367
437 1 0.245769 0.238554 0.372603
129 1 0.488943 1.00046 0.498615
611 1 0.503946 0.0755183 0.483697
1045 1 0.550548 0.09126 0.40552