LAMMPS (15 Sep 2022)
OMP_NUM_THREADS environment is not set. Defaulting to 1 thread. (src/comm.cpp:98)
  using 1 OpenMP thread(s) per MPI task
Lattice spacing in x,y,z = 1.7099759 1.7099759 1.7099759
Created orthogonal box = (0 0 0) to (13.679808 13.679808 13.679808)
  1 by 1 by 1 MPI processor grid
Created 2048 atoms
  using lattice units in orthogonal box = (0 0 0) to (13.679808 13.679808 13.679808)
  create_atoms CPU = 0.000 seconds
Generated 0 of 0 mixed pair_coeff terms from geometric mixing rule
Neighbor list info ...
  update: every = 1 steps, delay = 0 steps, check = yes
  max neighbors/atom: 2000, page size: 100000
  master list distance cutoff = 1.3
  ghost atom cutoff = 1.3
  binsize = 0.65, bins = 22 22 22
  1 neighbor lists, perpetual/occasional/extra = 1 0 0
  (1) pair lj/cut, perpetual
      attributes: half, newton on
      pair build: half/bin/atomonly/newton
      stencil: half/bin/3d
      bin: standard
Setting up Verlet run ...
  Unit style    : lj
  Current step  : 0
  Time step     : 0.01
Per MPI rank memory allocation (min/avg/max) = 3.184 | 3.184 | 3.184 Mbytes
   Step          Temp          E_pair         E_mol          TotEng         Press     
         0   3              0              0              4.4978027      2.3988281    
       500   3.0487233      0.95420086     0              5.5250528      12.223735    
      1000   2.9870188      1.0033762      0              5.4817166      12.415484    
      1500   2.9805185      0.90202668     0              5.3706214      11.740564    
      2000   2.9198054      0.9335736      0              5.3111431      11.875383    
      2500   2.8657023      1.0115468      0              5.3080013      12.454117    
      3000   3.0180931      0.91545394     0              5.4403831      11.744838    
      3500   2.9939327      0.95524372     0              5.44395        12.101461    
      4000   2.9633742      0.9759086      0              5.4187994      12.387543    
      4500   3.016954       0.97002058     0              5.493242       12.424402    
      5000   3.0354661      1.0142116      0              5.5651875      12.56991     
      5500   3.0671288      0.95952297     0              5.5579697      12.30883     
      6000   2.9628246      0.99009023     0              5.4321571      12.26172     
      6500   3.0508746      0.96191451     0              5.5359919      12.144563    
      7000   3.0198083      0.93975577     0              5.4672564      12.201783    
      7500   3.0263838      1.0238899      0              5.561249       12.681708    
      8000   3.0705935      0.93667609     0              5.5403173      12.06356     
      8500   3.0071675      1.061181       0              5.5697298      12.974764    
      9000   3.0035252      0.94404229     0              5.4471302      11.791263    
      9500   2.9516936      1.0546019      0              5.4799804      13.02813     
     10000   2.984718       0.92748605     0              5.402377       11.833413    
     10500   2.9466409      1.0013387      0              5.4191419      12.506196    
     11000   2.9435389      1.0366352      0              5.4497877      12.691206    
     11500   3.0408675      0.98362394     0              5.542698       12.389104    
     12000   3.0133412      0.9918006      0              5.5096054      12.440532    
     12500   2.9803318      1.0136193      0              5.4819341      12.556627    
     13000   3.0466182      1.0693853      0              5.6370813      13.029093    
     13500   3.0325811      1.0183906      0              5.5650412      12.609373    
     14000   3.007357       0.98928724     0              5.49812        12.507332    
     14500   3.0598558      1.0480247      0              5.6355673      12.699451    
     15000   2.9808981      1.0318472      0              5.501011       12.625274    
     15500   3.0383855      1.0239882      0              5.5793411      12.712705    
     16000   3.0213215      1.0170419      0              5.5468112      12.71312     
     16500   3.0615143      0.97229727     0              5.5623263      12.477213    
     17000   3.0164548      1.0167173      0              5.5391901      12.624861    
     17500   3.0509977      0.96755356     0              5.5418155      12.292439    
     18000   3.0347249      0.96530597     0              5.5151707      12.257766    
     18500   3.0798032      0.94099966     0              5.5584488      12.251135    
     19000   3.0081069      1.0144885      0              5.5244456      12.512472    
     19500   2.9882302      1.0207111      0              5.5008677      12.814173    
     20000   2.9596323      0.92976947     0              5.3670503      11.919744    
     20500   2.8980244      0.97045953     0              5.3153735      12.076833    
     21000   2.967563       0.99106834     0              5.4402393      12.321195    
     21500   2.9580946      0.94305116     0              5.3780265      12.019777    
     22000   3.0128723      0.92162713     0              5.4387288      11.848428    
     22500   2.9780663      0.95201165     0              5.4169299      12.119298    
     23000   2.9748587      0.96149599     0              5.4216052      12.281882    
     23500   3.0068397      0.93120028     0              5.4392576      11.867412    
     24000   3.0392082      0.91007578     0              5.4666621      11.909414    
     24500   3.0237252      1.0125347      0              5.5459078      12.648546    
     25000   2.9054542      0.9496306      0              5.3056839      12.064624    
     25500   2.9514533      0.99781363     0              5.4228318      12.574099    
     26000   2.9456461      0.87732284     0              5.2936346      11.589639    
     26500   2.9730442      0.96331265     0              5.4207014      12.123591    
     27000   2.9467202      1.0203243      0              5.4382464      12.614664    
     27500   2.8773641      1.0470711      0              5.3610098      12.663792    
     28000   3.0054386      0.94674869     0              5.4527054      12.075521    
     28500   3.0189262      0.95167763     0              5.4778558      12.230619    
     29000   2.9505777      0.96872931     0              5.3924348      12.276085    
     29500   2.9970593      0.94788641     0              5.4412802      12.097274    
     30000   3.0373204      0.96740011     0              5.5211561      12.298663    
     30500   3.0037642      0.93630301     0              5.4397493      11.835018    
     31000   2.9134954      1.0297784      0              5.3978876      12.801738    
     31500   2.9547852      1.0036284      0              5.433642       12.38619     
     32000   2.9433467      0.95718992     0              5.3700541      12.101208    
     32500   2.9372154      0.94256004     0              5.3462318      11.887112    
     33000   2.9583751      1.0221127      0              5.4575086      12.505094    
     33500   3.0494143      0.93488753     0              5.5067755      11.970212    
     34000   3.0105126      0.96054933     0              5.4741133      12.257396    
     34500   2.9687783      0.97860508     0              5.4295982      12.32491     
     35000   2.9715054      0.92296931     0              5.3780509      11.829394    
     35500   2.9875251      0.96265067     0              5.4417502      12.208832    
     36000   2.9618134      0.95514304     0              5.3956938      12.110887    
     36500   2.9808658      0.964897       0              5.4340124      12.141775    
     37000   2.9444115      0.90849059     0              5.3229512      11.928948    
     37500   2.9563566      1.0154997      0              5.4478693      12.695217    
     38000   3.0375241      0.97494142     0              5.5290028      12.243476    
     38500   2.9316097      0.98905644     0              5.3843238      12.321716    
     39000   2.9996982      0.92173599     0              5.4190862      11.872406    
     39500   2.9799274      0.97677849     0              5.444487       12.41158     
     40000   2.9774754      0.98342676     0              5.4474592      12.262347    
     40500   2.9968646      1.0115757      0              5.5046776      12.509339    
     41000   3.0232781      0.96163874     0              5.4943416      12.179173    
     41500   3.0157154      0.99385515     0              5.5152195      12.54494     
     42000   2.9587657      0.96179179     0              5.3977733      12.209745    
     42500   3.0163616      0.99824721     0              5.5205804      12.462239    
     43000   3.083296       0.95817259     0              5.5808583      12.174021    
     43500   2.8956782      0.99785571     0              5.3392521      12.605694    
     44000   2.9906119      1.0029524      0              5.4866799      12.485107    
     44500   2.9997795      1.0226379      0              5.5201101      12.680608    
     45000   3.0257521      0.97478148     0              5.5111934      12.228811    
     45500   2.999075       0.97917295     0              5.4755889      12.269534    
     46000   2.9440383      0.94055926     0              5.3544605      11.981426    
     46500   2.870175       0.97073996     0              5.2739002      12.258574    
     47000   2.968201       0.93985267     0              5.3899802      12.000575    
     47500   2.9680794      0.96597096     0              5.4159162      12.312707    
     48000   2.9945383      0.89818043     0              5.3877946      11.77444     
     48500   2.9619639      0.94475424     0              5.3855308      12.036333    
     49000   2.943933       0.95623215     0              5.3699754      12.009876    
     49500   3.0094623      0.97191507     0              5.4839043      12.361568    
     50000   3.0578005      0.96905995     0              5.5535211      12.390097    
Loop time of 22.6366 on 1 procs for 50000 steps with 2048 atoms

Performance: 1908417.679 tau/day, 2208.817 timesteps/s, 4.524 Matom-step/s
99.7% CPU use with 1 MPI tasks x 1 OpenMP threads

MPI task timing breakdown:
Section |  min time  |  avg time  |  max time  |%varavg| %total
---------------------------------------------------------------
Pair    | 3.3203     | 3.3203     | 3.3203     |   0.0 | 14.67
Neigh   | 16.5       | 16.5       | 16.5       |   0.0 | 72.89
Comm    | 1.1137     | 1.1137     | 1.1137     |   0.0 |  4.92
Output  | 0.0059123  | 0.0059123  | 0.0059123  |   0.0 |  0.03
Modify  | 1.211      | 1.211      | 1.211      |   0.0 |  5.35
Other   |            | 0.4853     |            |       |  2.14

Nlocal:           2048 ave        2048 max        2048 min
Histogram: 1 0 0 0 0 0 0 0 0 0
Nghost:           1384 ave        1384 max        1384 min
Histogram: 1 0 0 0 0 0 0 0 0 0
Neighs:           7470 ave        7470 max        7470 min
Histogram: 1 0 0 0 0 0 0 0 0 0

Total # of neighbors = 7470
Ave neighs/atom = 3.6474609
Neighbor list builds = 20336
Dangerous builds = 0
Generated 0 of 0 mixed pair_coeff terms from geometric mixing rule
Setting up Verlet run ...
  Unit style    : lj
  Current step  : 50000
  Time step     : 0.01
Per MPI rank memory allocation (min/avg/max) = 3.325 | 3.325 | 3.325 Mbytes
   Step          Temp          E_pair         E_mol          TotEng         Press     
     50000   3.0578005      0.96905995     0              5.5535211      12.390097    
     50500   3.0095951      0.96689801     0              5.4790863      12.205106    
     51000   3.0604666      0.94991111     0              5.5383694      12.190641    
     51500   2.9516834      0.99414976     0              5.419513       12.356173    
     52000   2.9702375      1.0407329      0              5.4939137      12.701269    
     52500   2.9419739      0.95141405     0              5.3622201      12.195869    
     53000   2.931226       0.94021945     0              5.3349116      11.93309     
     53500   2.976119       0.865477       0              5.3274758      11.447725    
     54000   2.9128245      0.97558939     0              5.3426928      12.273017    
     54500   2.9458328      0.92336667     0              5.3399583      11.905632    
     55000   2.8536674      0.94824816     0              5.2266592      12.031038    
     55500   2.8538753      0.9309652      0              5.209688       11.824543    
     56000   2.8192568      0.96875348     0              5.1955737      12.058559    
     56500   2.8707928      0.95396542     0              5.258052       11.80596     
     57000   2.8197541      0.8879453      0              5.1155112      11.58198     
     57500   2.745532       0.92804021     0              5.0443273      11.76387     
     58000   2.7402484      0.83272331     0              4.941089       11.030888    
     58500   2.6228086      0.90667479     0              4.8389666      11.472256    
     59000   2.6880689      0.84060561     0              4.8707401      11.005672    
     59500   2.6751607      0.85058931     0              4.861371       11.268593    
     60000   2.6868271      0.86242968     0              4.8907025      11.249001    
     60500   2.6675812      0.82831668     0              4.8277347      10.941972    
     61000   2.7003081      0.83773087     0              4.8862153      11.11506     
     61500   2.7010999      0.89507834     0              4.9447499      11.534691    
     62000   2.6842583      0.8681133      0              4.8925347      11.335226    
     62500   2.6779009      0.8069973      0              4.8218873      10.801679    
     63000   2.7134011      0.85836764     0              4.926482       11.239265    
     63500   2.6296887      0.82511965     0              4.7677267      10.919573    
     64000   2.6246266      0.82211526     0              4.7571329      10.939547    
     64500   2.5872476      0.84940081     0              4.7283773      11.012596    
     65000   2.619784       0.81516361     0              4.7429208      10.850002    
     65500   2.6195185      0.76310709     0              4.6904663      10.300855    
     66000   2.5645968      0.80926303     0              4.6542798      10.743019    
     66500   2.5391659      0.84501302     0              4.6519022      10.906219    
     67000   2.5816608      0.83475183     0              4.7053522      10.855115    
     67500   2.5306166      0.79371808     0              4.5877895      10.611311    
     68000   2.5396764      0.75000526     0              4.5576598      10.198399    
     68500   2.5020544      0.79306056     0              4.5443096      10.703578    
     69000   2.4915225      0.81795499     0              4.5534139      10.71958     
     69500   2.4518186      0.79368454     0              4.4696166      10.483549    
     70000   2.4199742      0.77522477     0              4.4034136      10.43161     
     70500   2.4559996      0.72429392     0              4.4064944      9.8921566    
     71000   2.4902639      0.75296019     0              4.4865322      10.138744    
     71500   2.4364905      0.69718707     0              4.3501383      9.8170442    
     72000   2.3937211      0.75725722     0              4.3460857      10.087777    
     72500   2.3634502      0.72668074     0              4.270125       9.8416521    
     73000   2.3696477      0.71133635     0              4.2640723      9.7768524    
     73500   2.3658213      0.74245757     0              4.2894568      10.04193     
     74000   2.3713674      0.76948713     0              4.3248014      10.12532     
     74500   2.2717189      0.73527933     0              4.1411938      9.9638496    
     75000   2.2562156      0.73818029     0              4.1208513      9.995888     
     75500   2.2326181      0.71953288     0              4.0668249      9.6383851    
     76000   2.2475967      0.69272729     0              4.0624761      9.6280178    
     76500   2.2783106      0.65653078     0              4.072328       9.3517807    
     77000   2.1987342      0.6945178      0              3.9910087      9.4730149    
     77500   2.1725305      0.66377801     0              3.9209825      9.2607834    
     78000   2.1269215      0.68492725     0              3.8737518      9.3329603    
     78500   2.1311408      0.68162629     0              3.8767766      9.3878823    
     79000   2.1008012      0.66096976     0              3.8106328      9.1275266    
     79500   2.0744506      0.66824197     0              3.7783985      9.230007     
     80000   2.0916016      0.67879566     0              3.8146661      9.3440151    
     80500   2.1259467      0.61959696     0              3.80696        8.9351421    
     81000   2.0748033      0.60080174     0              3.711487       8.7495845    
     81500   2.087003       0.6269417      0              3.7559177      8.9406894    
     82000   2.062273       0.60486536     0              3.6967645      8.6603833    
     82500   2.0934741      0.59014849     0              3.7288263      8.6055561    
     83000   2.076682       0.60682001     0              3.720322       8.7470683    
     83500   1.9929305      0.62948033     0              3.6174164      8.850309     
     84000   2.0240762      0.56541799     0              3.6000499      8.3890299    
     84500   1.9694793      0.63112317     0              3.5838996      8.8246747    
     85000   1.9796332      0.61141804     0              3.5794179      8.7057581    
     85500   1.9956229      0.6094293      0              3.601402       8.7359942    
     86000   1.9423201      0.61849383     0              3.5305514      8.7865814    
     86500   1.9595958      0.58912633     0              3.5270847      8.4873742    
     87000   1.9488653      0.5806073      0              3.5024778      8.4138006    
     87500   1.8892682      0.57431764     0              3.4068362      8.3974634    
     88000   1.8353056      0.57618014     0              3.3277944      8.3450141    
     88500   1.8055168      0.54829316     0              3.255246       8.0080526    
     89000   1.8288864      0.59198508     0              3.3339751      8.4383304    
     89500   1.8779196      0.54526356     0              3.3607675      8.1946554    
     90000   1.8642179      0.53115543     0              3.3261168      8.0090976    
     90500   1.8341548      0.5204908      0              3.2703797      7.8332422    
     91000   1.8072623      0.55472071     0              3.2642905      8.1503775    
     91500   1.8185984      0.55880078     0              3.2853664      7.9844132    
     92000   1.7937308      0.50335093     0              3.1926334      7.5986227    
     92500   1.7864775      0.51055094     0              3.1889587      7.7130077    
     93000   1.7704019      0.48150069     0              3.1358069      7.3940614    
     93500   1.716953       0.49081819     0              3.0649902      7.4192907    
     94000   1.6866409      0.4808609      0              3.009587       7.3698003    
     94500   1.6375447      0.47976607     0              2.9348838      7.3662047    
     95000   1.6887691      0.46351838     0              2.9954351      7.1902333    
     95500   1.6739226      0.49852896     0              3.0081869      7.4716767    
     96000   1.6621639      0.47876673     0              2.9707952      7.2603435    
     96500   1.5928574      0.46544269     0              2.8535622      7.1301663    
     97000   1.6184512      0.44702344     0              2.8735149      7.0370563    
     97500   1.6169807      0.4538966      0              2.8781833      7.0711014    
     98000   1.5785512      0.47279019     0              2.8394609      7.1682371    
     98500   1.5613862      0.47061475     0              2.8115505      7.2116424    
     99000   1.5709246      0.47613311     0              2.8313694      7.1398319    
     99500   1.5961796      0.45802864     0              2.8511289      7.084344     
    100000   1.6349748      0.47887398     0              2.9301386      7.2129331    
    100500   1.5388173      0.44618613     0              2.7532851      6.9952744    
    101000   1.544787       0.43046394     0              2.746513       6.763141     
    101500   1.5361634      0.44250952     0              2.7456296      6.8453259    
    102000   1.4800307      0.43609204     0              2.6550541      6.7419729    
    102500   1.4871788      0.4215508      0              2.6512297      6.6611047    
    103000   1.4501604      0.40739016     0              2.5815687      6.4726385    
    103500   1.4608787      0.40040586     0              2.5906539      6.3602101    
    104000   1.4196912      0.40703914     0              2.5355361      6.4701955    
    104500   1.4438541      0.37881158     0              2.5435352      6.2227948    
    105000   1.3886286      0.39241863     0              2.4743445      6.399377     
    105500   1.3376147      0.3981422      0              2.4035845      6.3287392    
    106000   1.3386289      0.3782425      0              2.3852054      6.1422151    
    106500   1.3515313      0.37321444     0              2.3995215      6.1212262    
    107000   1.3494089      0.38554233     0              2.4086673      6.1026764    
    107500   1.3537543      0.37070208     0              2.4003419      6.0294535    
    108000   1.3364951      0.36334967     0              2.3671135      5.9829573    
    108500   1.3224875      0.36717603     0              2.3499387      6.0184064    
    109000   1.3208512      0.38961444     0              2.3699238      6.2104136    
    109500   1.288941       0.36167625     0              2.2941437      5.9486257    
    110000   1.2855472      0.33648861     0              2.2638678      5.7097258    
    110500   1.2285963      0.33959266     0              2.1815872      5.6733906    
    111000   1.2150315      0.33695631     0              2.1586137      5.6244827    
    111500   1.2252932      0.32392465     0              2.160967       5.4814895    
    112000   1.1881034      0.31469986     0              2.0959848      5.3535342    
    112500   1.1732287      0.31492866     0              2.0739124      5.391221     
    113000   1.1411731      0.31413725     0              2.0250611      5.3004056    
    113500   1.1542291      0.31447679     0              2.0449751      5.3975183    
    114000   1.1497995      0.3116423      0              2.0354995      5.2785474    
    114500   1.1269132      0.28525105     0              1.9747954      5.026722     
    115000   1.0961098      0.29182407     0              1.9351859      5.1073467    
    115500   1.0830426      0.28826696     0              1.9120377      5.0544233    
    116000   1.0525415      0.30328448     0              1.8813258      5.1243067    
    116500   1.055453       0.29116848     0              1.873575       5.0853665    
    117000   1.0606621      0.27592425     0              1.8661405      4.8623601    
    117500   1.0392234      0.27792898     0              1.8360029      4.8681676    
    118000   1.0214576      0.25810939     0              1.7895477      4.6537114    
    118500   0.98908294     0.25978515     0              1.7426851      4.607554     
    119000   0.99406049     0.24543543     0              1.7357981      4.5894811    
    119500   0.98129773     0.25195111     0              1.723179       4.5503845    
    120000   0.96306824     0.2549064      0              1.6988034      4.584195     
    120500   0.94090545     0.25174051     0              1.6624096      4.5625013    
    121000   0.93348758     0.24277301     0              1.6423207      4.4274276    
    121500   0.91083729     0.23753919     0              1.603128       4.4335151    
    122000   0.90322935     0.24410015     0              1.5982826      4.4345946    
    122500   0.91039558     0.21968972     0              1.5846163      4.1932073    
    123000   0.89897556     0.23248497     0              1.5802899      4.3103296    
    123500   0.87661396     0.19196327     0              1.5062422      3.9065116    
    124000   0.85020649     0.20759426     0              1.4822813      4.0259455    
    124500   0.83270468     0.20175848     0              1.4502056      3.9091541    
    125000   0.84080416     0.1876436      0              1.448234       3.8552706    
    125500   0.81995108     0.20860844     0              1.4379345      3.993867     
    126000   0.80522516     0.20161365     0              1.4088616      3.9305705    
    126500   0.79282389     0.19237495     0              1.3810301      3.7518293    
    127000   0.77819182     0.18222651     0              1.3489443      3.6330745    
    127500   0.771686       0.19216731     0              1.3491311      3.7826713    
    128000   0.72666658     0.17535812     0              1.2648258      3.5346515    
    128500   0.71840813     0.1824335      0              1.2595195      3.6084483    
    129000   0.70967566     0.16529283     0              1.2292865      3.4479936    
    129500   0.69222666     0.17722829     0              1.2150613      3.5140077    
    130000   0.69400089     0.15813289     0              1.1986259      3.3593815    
    130500   0.67812156     0.15584447     0              1.1725301      3.2612533    
    131000   0.67024443     0.15503401     0              1.1599098      3.3085773    
    131500   0.64878212     0.15156765     0              1.1242656      3.2528107    
    132000   0.62468132     0.15085304     0              1.0874175      3.1620617    
    132500   0.6009359      0.13299249     0              1.0339562      2.9053216    
    133000   0.57966598     0.12886119     0              0.99793559     2.8663108    
    133500   0.57309015     0.14059123     0              0.99980671     2.9524827    
    134000   0.53818072     0.11966126     0              0.92653815     2.7151319    
    134500   0.54223054     0.12538463     0              0.9383333      2.7770052    
    135000   0.53268531     0.11033389     0              0.9089717      2.6143784    
    135500   0.51077433     0.1206232      0              0.88641058     2.7472081    
    136000   0.50774012     0.11412704     0              0.87536535     2.6009926    
    136500   0.50203922     0.1081322      0              0.86082333     2.5098364    
    137000   0.47369026     0.10511094     0              0.8152994      2.5028715    
    137500   0.45390324     0.091014738    0              0.77153715     2.216411     
    138000   0.43699452     0.099129242    0              0.75430096     2.3515791    
    138500   0.44131835     0.079725341    0              0.74137963     2.1163499    
    139000   0.42618826     0.086513683    0              0.72548392     2.1454331    
    139500   0.40589062     0.08668529     0              0.69522394     2.1336176    
    140000   0.39461154     0.082605864    0              0.67423415     2.0679861    
    140500   0.37945468     0.076371354    0              0.64527545     1.9782068    
    141000   0.35725486     0.070540696    0              0.60616132     1.8892       
    141500   0.33586155     0.07547975     0              0.57902608     1.940635     
    142000   0.3374401      0.062101452    0              0.56801445     1.7602603    
    142500   0.31878891     0.063129428    0              0.5410793      1.7299305    
    143000   0.29502097     0.054948414    0              0.49726379     1.5851876    
    143500   0.28526479     0.051369228    0              0.47905747     1.4832249    
    144000   0.28158396     0.044048201    0              0.46621791     1.3868083    
    144500   0.26038848     0.047438476    0              0.43783049     1.3921513    
    145000   0.24039262     0.04378493     0              0.40419779     1.3472222    
    145500   0.23023687     0.042867444    0              0.38805412     1.3251984    
    146000   0.21414097     0.031289124    0              0.35234373     1.0834567    
    146500   0.203724       0.028706733    0              0.33414352     1.0411668    
    147000   0.18670801     0.02717081     0              0.30709608     0.97064732   
    147500   0.16868583     0.027334543    0              0.28023973     0.97343918   
    148000   0.15885239     0.022633828    0              0.26079607     0.87301419   
    148500   0.14262786     0.019736642    0              0.23357397     0.7892046    
    149000   0.12940196     0.01806192     0              0.21207009     0.75134116   
    149500   0.11653109     0.015445945    0              0.19015724     0.6763226    
    150000   0.10128263     0.012827127    0              0.16467689     0.5826783    
Loop time of 33.7714 on 1 procs for 100000 steps with 2048 atoms

Performance: 2558376.655 tau/day, 2961.084 timesteps/s, 6.064 Matom-step/s
99.5% CPU use with 1 MPI tasks x 1 OpenMP threads

MPI task timing breakdown:
Section |  min time  |  avg time  |  max time  |%varavg| %total
---------------------------------------------------------------
Pair    | 5.9065     | 5.9065     | 5.9065     |   0.0 | 17.49
Neigh   | 22.852     | 22.852     | 22.852     |   0.0 | 67.67
Comm    | 1.7022     | 1.7022     | 1.7022     |   0.0 |  5.04
Output  | 0.06847    | 0.06847    | 0.06847    |   0.0 |  0.20
Modify  | 2.4151     | 2.4151     | 2.4151     |   0.0 |  7.15
Other   |            | 0.827      |            |       |  2.45

Nlocal:           2048 ave        2048 max        2048 min
Histogram: 1 0 0 0 0 0 0 0 0 0
Nghost:           1390 ave        1390 max        1390 min
Histogram: 1 0 0 0 0 0 0 0 0 0
Neighs:           7841 ave        7841 max        7841 min
Histogram: 1 0 0 0 0 0 0 0 0 0

Total # of neighbors = 7841
Ave neighs/atom = 3.8286133
Neighbor list builds = 28403
Dangerous builds = 0
Total wall time: 0:00:56
Simulation density 0.8 completed.
LAMMPS (15 Sep 2022)
OMP_NUM_THREADS environment is not set. Defaulting to 1 thread. (src/comm.cpp:98)
  using 1 OpenMP thread(s) per MPI task
Lattice spacing in x,y,z = 1.6441414 1.6441414 1.6441414
Created orthogonal box = (0 0 0) to (13.153131 13.153131 13.153131)
  1 by 1 by 1 MPI processor grid
Created 2048 atoms
  using lattice units in orthogonal box = (0 0 0) to (13.153131 13.153131 13.153131)
  create_atoms CPU = 0.000 seconds
Generated 0 of 0 mixed pair_coeff terms from geometric mixing rule
Neighbor list info ...
  update: every = 1 steps, delay = 0 steps, check = yes
  max neighbors/atom: 2000, page size: 100000
  master list distance cutoff = 1.3
  ghost atom cutoff = 1.3
  binsize = 0.65, bins = 21 21 21
  1 neighbor lists, perpetual/occasional/extra = 1 0 0
  (1) pair lj/cut, perpetual
      attributes: half, newton on
      pair build: half/bin/atomonly/newton
      stencil: half/bin/3d
      bin: standard
Setting up Verlet run ...
  Unit style    : lj
  Current step  : 0
  Time step     : 0.01
Per MPI rank memory allocation (min/avg/max) = 3.176 | 3.176 | 3.176 Mbytes
   Step          Temp          E_pair         E_mol          TotEng         Press     
         0   3              0              0              4.4978027      2.6986816    
       500   3.0232082      1.4238345      0              5.9564325      18.417706    
      1000   3.0621826      1.3421024      0              5.9331335      17.759144    
      1500   3.0314452      1.3540739      0              5.8990214      17.940385    
      2000   3.0284317      1.2731915      0              5.813621       17.261654    
      2500   3.0168869      1.2386926      0              5.7618133      16.926655    
      3000   2.9383817      1.3050709      0              5.7104913      17.564809    
      3500   2.9355474      1.3595858      0              5.7607568      17.7329      
      4000   2.9818951      1.368354       0              5.8390127      18.108499    
      4500   3.0598231      1.3234292      0              5.9109227      17.600298    
      5000   3.0605756      1.2888158      0              5.8774376      17.411478    
      5500   3.05031        1.3470304      0              5.9202613      17.800647    
      6000   2.9574613      1.3649628      0              5.7989886      17.91151     
      6500   3.0460388      1.2753113      0              5.8421385      17.302128    
      7000   2.885126       1.3530151      0              5.6785909      17.808161    
      7500   3.016007       1.2653029      0              5.7871044      17.206602    
      8000   3.0360676      1.3102545      0              5.8621323      17.424651    
      8500   2.9505189      1.3480683      0              5.7716856      17.724938    
      9000   3.0160552      1.2161199      0              5.7379937      16.852487    
      9500   2.9547348      1.2987657      0              5.7287037      17.445288    
     10000   2.9859796      1.3382945      0              5.815077       17.641682    
     10500   3.0652662      1.3316782      0              5.9273325      17.869851    
     11000   3.0695308      1.4579861      0              6.0600341      18.730723    
     11500   3.0324567      1.3177631      0              5.8642271      17.555124    
     12000   3.0720519      1.367124       0              5.9729519      18.172904    
     12500   3.0082159      1.3057479      0              5.8158684      17.364728    
     13000   2.9956795      1.3278238      0              5.8191489      17.760936    
     13500   3.023858       1.348053       0              5.8816252      17.935157    
     14000   3.0762867      1.3551801      0              5.967357       18.220165    
     14500   2.9658586      1.3142545      0              5.7608701      17.650045    
     15000   2.9764102      1.3082804      0              5.7707157      17.515718    
     15500   2.9908292      1.2919906      0              5.7760438      17.494272    
     16000   3.0107596      1.3119765      0              5.8259107      17.406706    
     16500   3.0064888      1.3720073      0              5.8795385      18.035757    
     17000   2.9642722      1.3387431      0              5.7829803      17.745034    
     17500   2.9989789      1.2938502      0              5.7901221      17.383059    
     18000   3.000293       1.2401095      0              5.7383516      17.188834    
     18500   3.0048655      1.2769755      0              5.7820729      17.205156    
     19000   2.9460649      1.3638519      0              5.7807915      17.713066    
     19500   2.9433761      1.380416       0              5.7933244      17.91044     
     20000   3.0420805      1.4185362      0              5.9794289      18.350961    
     20500   3.0645421      1.3019455      0              5.8965141      17.579426    
     21000   3.0247591      1.3411993      0              5.8761226      17.829712    
     21500   3.0011576      1.2798294      0              5.7793677      17.376867    
     22000   2.9856903      1.34573        0              5.8220787      17.957445    
     22500   2.9091452      1.3911194      0              5.7527065      18.147493    
     23000   3.0398986      1.2950699      0              5.8526912      17.654461    
     23500   3.0443856      1.4457777      0              6.0101263      18.618695    
     24000   2.9786635      1.27857        0              5.7443836      17.126019    
     24500   2.957354       1.3366681      0              5.770533       17.799612    
     25000   2.9922468      1.3093849      0              5.7955636      17.566144    
     25500   2.9695073      1.2921987      0              5.7442848      17.420737    
     26000   2.9977554      1.2688296      0              5.7632672      16.974289    
     26500   2.9163326      1.3829035      0              5.7552663      18.158823    
     27000   2.9842311      1.3063027      0              5.7804636      17.376103    
     27500   3.0286377      1.334499       0              5.8752373      17.801682    
     28000   3.0573823      1.3670046      0              5.9508388      18.019333    
     28500   3.0369893      1.327236       0              5.8804956      17.629073    
     29000   2.9769211      1.2434328      0              5.706634       16.948215    
     29500   2.9663271      1.2385049      0              5.685823       16.894312    
     30000   2.9745853      1.3052861      0              5.7649854      17.350794    
     30500   2.9739329      1.3508973      0              5.8096185      17.824257    
     31000   3.034619       1.284666       0              5.834372       17.349534    
     31500   3.0510659      1.2840249      0              5.8583891      17.415619    
     32000   3.1264938      1.2564666      0              5.9439173      17.336043    
     32500   3.0478067      1.3251667      0              5.8946444      17.688642    
     33000   3.0978561      1.2902278      0              5.9347431      17.431944    
     33500   2.9864564      1.3753475      0              5.8528447      18.013814    
     34000   3.0037307      1.3493593      0              5.8527553      17.821403    
     34500   3.110852       1.3360917      0              6.0000913      17.856824    
     35000   3.0415035      1.3645413      0              5.9245689      18.092674    
     35500   3.0778859      1.2709169      0              5.8854915      17.363034    
     36000   2.9796191      1.3413938      0              5.8086401      17.84847     
     36500   2.9853992      1.310103       0              5.7860152      17.559043    
     37000   2.9790558      1.2422076      0              5.7086095      16.849202    
     37500   2.9762526      1.29131        0              5.7535091      17.320573    
     38000   2.9670908      1.2911971      0              5.7396601      17.246666    
     38500   3.0173358      1.2973746      0              5.8211684      17.393267    
     39000   3.0884858      1.3880027      0              6.0184694      18.237914    
     39500   3.0766147      1.2090146      0              5.8216834      16.790816    
     40000   2.9645673      1.3578251      0              5.8025047      17.790734    
     40500   2.9317696      1.4146715      0              5.8101786      18.093847    
     41000   2.9985322      1.3274368      0              5.8230389      17.609758    
     41500   3.0526741      1.342768       0              5.9195434      17.673614    
     42000   3.0258189      1.3502185      0              5.8867307      17.890716    
     42500   3.0788269      1.3698375      0              5.9858227      18.195861    
     43000   2.9619275      1.2864667      0              5.7271886      17.450172    
     43500   3.0125255      1.2804123      0              5.7969941      17.259936    
     44000   2.9988318      1.3505055      0              5.8465568      17.89434     
     44500   3.0700321      1.3156724      0              5.918472       17.671532    
     45000   3.0585009      1.2767086      0              5.8622198      17.281733    
     45500   2.978665       1.3115313      0              5.7773472      17.577667    
     46000   2.9742762      1.2529084      0              5.7121442      17.11718     
     46500   2.9262889      1.400465       0              5.7877551      17.957057    
     47000   3.0247524      1.2889488      0              5.8238619      17.209326    
     47500   3.0285829      1.3280134      0              5.8686695      17.578296    
     48000   3.010267       1.3952594      0              5.9084551      18.182563    
     48500   3.062306       1.2529965      0              5.8442126      17.194924    
     49000   3.0564386      1.3951213      0              5.9775405      18.418689    
     49500   2.9720783      1.3330051      0              5.7889458      17.62248     
     50000   3.0277674      1.2582731      0              5.7977066      17.14555     
Loop time of 24.7111 on 1 procs for 50000 steps with 2048 atoms

Performance: 1748200.517 tau/day, 2023.380 timesteps/s, 4.144 Matom-step/s
99.7% CPU use with 1 MPI tasks x 1 OpenMP threads

MPI task timing breakdown:
Section |  min time  |  avg time  |  max time  |%varavg| %total
---------------------------------------------------------------
Pair    | 3.9799     | 3.9799     | 3.9799     |   0.0 | 16.11
Neigh   | 17.886     | 17.886     | 17.886     |   0.0 | 72.38
Comm    | 1.1376     | 1.1376     | 1.1376     |   0.0 |  4.60
Output  | 0.0057036  | 0.0057036  | 0.0057036  |   0.0 |  0.02
Modify  | 1.2173     | 1.2173     | 1.2173     |   0.0 |  4.93
Other   |            | 0.4849     |            |       |  1.96

Nlocal:           2048 ave        2048 max        2048 min
Histogram: 1 0 0 0 0 0 0 0 0 0
Nghost:           1460 ave        1460 max        1460 min
Histogram: 1 0 0 0 0 0 0 0 0 0
Neighs:           8683 ave        8683 max        8683 min
Histogram: 1 0 0 0 0 0 0 0 0 0

Total # of neighbors = 8683
Ave neighs/atom = 4.2397461
Neighbor list builds = 20199
Dangerous builds = 0
Generated 0 of 0 mixed pair_coeff terms from geometric mixing rule
Setting up Verlet run ...
  Unit style    : lj
  Current step  : 50000
  Time step     : 0.01
Per MPI rank memory allocation (min/avg/max) = 3.318 | 3.318 | 3.318 Mbytes
   Step          Temp          E_pair         E_mol          TotEng         Press     
     50000   3.0277674      1.2582731      0              5.7977066      17.14555     
     50500   3.0250649      1.232036       0              5.7674176      16.914164    
     51000   2.9878349      1.2945095      0              5.7740736      17.33197     
     51500   3.0197578      1.3576389      0              5.8850638      17.804822    
     52000   2.946733       1.3276523      0              5.7455935      17.621344    
     52500   2.9387921      1.2652507      0              5.6712864      17.194872    
     53000   2.898784       1.2364012      0              5.5824541      16.65377     
     53500   2.7955439      1.2971986      0              5.4884669      17.32936     
     54000   2.8599695      1.2537114      0              5.541571       17.000158    
     54500   2.8424515      1.2951069      0              5.5567022      17.178614    
     55000   2.8668049      1.2924125      0              5.5905201      17.412972    
     55500   2.8564828      1.3042422      0              5.5868743      17.297049    
     56000   2.8563962      1.2642751      0              5.5467773      17.182912    
     56500   2.8478172      1.2041982      0              5.4738382      16.331656    
     57000   2.8148553      1.2083591      0              5.4285804      16.531373    
     57500   2.8543883      1.2617027      0              5.5411945      17.10289     
     58000   2.7711446      1.2363014      0              5.3909887      16.806787    
     58500   2.7859109      1.2061397      0              5.3829656      16.576095    
     59000   2.7428979      1.2560817      0              5.3684196      16.949909    
     59500   2.7607484      1.2397262      0              5.3788268      16.58926     
     60000   2.7785306      1.1829332      0              5.348694       16.384172    
     60500   2.7019595      1.1562349      0              5.2071952      16.065764    
     61000   2.5821313      1.1803747      0              5.0516805      15.918858    
     61500   2.6152891      1.1521687      0              5.0731868      15.881367    
     62000   2.6052284      1.1299955      0              5.03593        15.855471    
     62500   2.6283361      1.1561797      0              5.0967588      15.890016    
     63000   2.6245048      1.1252766      0              5.0601115      15.762977    
     63500   2.5905134      1.1229791      0              5.0068518      15.662068    
     64000   2.5408671      1.080401       0              4.8898406      15.143124    
     64500   2.5015206      1.1844621      0              4.9349108      16.174957    
     65000   2.5137863      1.1214031      0              4.8902414      15.45533     
     65500   2.5152274      1.0854976      0              4.8564966      15.342218    
     66000   2.5186133      1.1199165      0              4.8959918      15.714426    
     66500   2.5244002      1.1349799      0              4.9197314      15.653716    
     67000   2.562968       1.0723971      0              4.9149719      15.132198    
     67500   2.5368262      1.0775983      0              4.8809797      15.139778    
     68000   2.4903083      1.0835207      0              4.8171591      15.312031    
     68500   2.4955106      1.0121324      0              4.7535705      14.631122    
     69000   2.381856       1.0222329      0              4.5932724      14.738588    
     69500   2.4122369      0.97685951     0              4.593448       14.23877     
     70000   2.3600991      1.0098717      0              4.5482918      14.486197    
     70500   2.3130224      1.0311722      0              4.4990117      14.488195    
     71000   2.3288918      1.0489079      0              4.5405399      14.782593    
     71500   2.395343       0.97606951     0              4.5673296      14.242457    
     72000   2.3522265      1.0138104      0              4.5404274      14.471782    
     72500   2.3655554      1.0137976      0              4.560398       14.492895    
     73000   2.2465227      1.021509       0              4.3896477      14.513638    
     73500   2.2988693      1.0155154      0              4.4621355      14.322572    
     74000   2.2701775      0.98550993     0              4.3891135      14.049972    
     74500   2.2748812      0.96752621     0              4.3781818      14.104896    
     75000   2.2246706      0.94292971     0              4.2783063      13.842819    
     75500   2.2612138      0.92137639     0              4.3115409      13.544567    
     76000   2.2056212      0.98181086     0              4.2886273      13.982367    
     76500   2.1753877      0.95419839     0              4.2156866      13.876556    
     77000   2.1841816      0.94314904     0              4.2178217      13.677999    
     77500   2.2211856      0.88716682     0              4.2173184      13.259235    
     78000   2.1686401      0.95536265     0              4.2067345      13.796083    
     78500   2.1688131      0.91648288     0              4.1681141      13.494824    
     79000   2.1776774      0.89794558     0              4.1628667      13.367824    
     79500   2.166781       0.91716384     0              4.1657483      13.558282    
     80000   2.1345584      0.90155936     0              4.1018335      13.29773     
     80500   2.0914892      0.90793923     0              4.0436412      13.292132    
     81000   2.1099367      0.87735105     0              4.0407107      13.07659     
     81500   2.1163294      0.90123035     0              4.0741744      13.108522    
     82000   2.051183       0.88363555     0              3.9589077      12.965287    
     82500   2.0705848      0.8341904      0              3.938551       12.692301    
     83000   2.0489857      0.84052392     0              3.9125018      12.716749    
     83500   2.0163212      0.81327384     0              3.8362788      12.337689    
     84000   2.0036283      0.81206106     0              3.816036       12.347653    
     84500   2.0044082      0.75621619     0              3.7613605      11.775169    
     85000   1.9422696      0.83705474     0              3.7490366      12.504358    
     85500   1.9756193      0.78210379     0              3.7440857      11.982043    
     86000   1.9538244      0.81884963     0              3.7481552      12.300944    
     86500   1.9932932      0.79751331     0              3.7859932      12.154112    
     87000   1.9391863      0.86262168     0              3.7699808      12.816365    
     87500   1.9053224      0.81064353     0              3.6672316      12.244744    
     88000   1.9480422      0.76411359     0              3.6847501      11.913197    
     88500   1.8829613      0.795457       0              3.6185198      12.180012    
     89000   1.8934507      0.81737421     0              3.6561635      12.257412    
     89500   1.8571329      0.75989549     0              3.5442346      11.707474    
     90000   1.8408259      0.76087873     0              3.5207693      11.591919    
     90500   1.8157285      0.73575361     0              3.4580165      11.381756    
     91000   1.8104455      0.77036204     0              3.4847043      11.781533    
     91500   1.7861882      0.71449351     0              3.3924676      11.321195    
     92000   1.7881184      0.71480398     0              3.3956719      11.311397    
     92500   1.7599249      0.69688991     0              3.3354883      11.106722    
     93000   1.7423756      0.70594949     0              3.3182367      11.081426    
     93500   1.7236342      0.71167479     0              3.2958637      11.219172    
     94000   1.7210191      0.67485169     0              3.2551199      10.899996    
     94500   1.6807733      0.69388052     0              3.2138094      10.926099    
     95000   1.6571266      0.66787675     0              3.1523529      10.678127    
     95500   1.6759583      0.61333845     0              3.1260484      10.386552    
     96000   1.6327239      0.66943484     0              3.1173249      10.590932    
     96500   1.6306712      0.65492823     0              3.0997407      10.706257    
     97000   1.6403239      0.6413208      0              3.1006053      10.406068    
     97500   1.6169923      0.6492755      0              3.0735796      10.591151    
     98000   1.6018156      0.65514452     0              3.0566947      10.54491     
     98500   1.5984999      0.64636529     0              3.0429444      10.44008     
     99000   1.5996293      0.59522451     0              2.9934968      9.9286153    
     99500   1.5374442      0.63333869     0              2.938379       10.104395    
    100000   1.5044258      0.62154137     0              2.8770783      10.105089    
    100500   1.5219799      0.57075516     0              2.8526103      9.6323293    
    101000   1.4821504      0.56058405     0              2.782724       9.4166522    
    101500   1.4922298      0.54390152     0              2.7811532      9.3379339    
    102000   1.4597566      0.62077721     0              2.809343       10.007667    
    102500   1.4639227      0.59540464     0              2.7902164      9.6372367    
    103000   1.4495031      0.54127288     0              2.7144659      9.3413454    
    103500   1.4469664      0.5731623      0              2.7425521      9.6408629    
    104000   1.4435753      0.5961193      0              2.7604249      9.9491837    
    104500   1.4213127      0.57019609     0              2.7011241      9.5283234    
    105000   1.4182979      0.58854032     0              2.7149484      9.5585892    
    105500   1.3923586      0.56476917     0              2.6522873      9.4542045    
    106000   1.3837801      0.54818701     0              2.6228437      9.2660216    
    106500   1.3404819      0.57798472     0              2.5877257      9.5785472    
    107000   1.3777542      0.52375952     0              2.5893817      8.9768214    
    107500   1.3446185      0.53879022     0              2.5547331      9.1455893    
    108000   1.3276936      0.51638157     0              2.5069495      8.8254727    
    108500   1.3183923      0.51467211     0              2.4912949      8.8785918    
    109000   1.3061401      0.48589206     0              2.4441456      8.6060615    
    109500   1.288878       0.47324806     0              2.4056211      8.4221963    
    110000   1.2735519      0.48292825     0              2.3923233      8.6392292    
    110500   1.2925115      0.45871465     0              2.3965353      8.1508334    
    111000   1.2490454      0.45765515     0              2.3303084      8.2187843    
    111500   1.2288384      0.45293018     0              2.2952877      8.0554094    
    112000   1.2080816      0.4770746      0              2.2883122      8.3581595    
    112500   1.1830362      0.47203809     0              2.2457259      8.4027482    
    113000   1.1577813      0.41324726     0              2.1490712      7.6658023    
    113500   1.1327532      0.43570819     0              2.1340083      7.9398859    
    114000   1.1143008      0.40776798     0              2.078403       7.7040202    
    114500   1.1288292      0.41007499     0              2.102492       7.727171     
    115000   1.1157903      0.39196644     0              2.0648347      7.3867393    
    115500   1.0974948      0.38493365     0              2.0303721      7.1970976    
    116000   1.0704697      0.40204079     0              2.0069614      7.3565671    
    116500   1.065043       0.41951593     0              2.0163003      7.6415646    
    117000   1.0691863      0.37844569     0              1.9814421      7.1832582    
    117500   1.0590299      0.39489048     0              1.9826597      7.4498313    
    118000   1.0355028      0.36987529     0              1.922371       7.0375793    
    118500   1.0021377      0.39323988     0              1.8957124      7.3131854    
    119000   0.98329827     0.39318647     0              1.8674137      7.188783     
    119500   0.99098321     0.35933985     0              1.8450888      6.9717197    
    120000   0.97548978     0.38053554     0              1.8430557      6.9876095    
    120500   0.95545256     0.37748045     0              1.8099595      7.1274174    
    121000   0.94348017     0.35271777     0              1.767247       6.6905251    
    121500   0.93770443     0.33799672     0              1.7438666      6.5398573    
    122000   0.91416046     0.32445996     0              1.6950311      6.4014214    
    122500   0.90481507     0.30515614     0              1.661716       6.1606013    
    123000   0.89961881     0.30172975     0              1.6504991      6.1075521    
    123500   0.87952639     0.29963189     0              1.6182773      6.0970196    
    124000   0.8708134      0.2834885      0              1.5890708      5.9350437    
    124500   0.8447648      0.29112188     0              1.5576504      5.8578978    
    125000   0.83758353     0.27124343     0              1.5270053      5.7975205    
    125500   0.82004485     0.28024112     0              1.5097078      5.7018957    
    126000   0.81093274     0.27841467     0              1.4942198      5.7596222    
    126500   0.79043162     0.26764789     0              1.4527164      5.6320397    
    127000   0.77893984     0.27895436     0              1.4467936      5.7034142    
    127500   0.74179099     0.25438055     0              1.3665237      5.4152023    
    128000   0.72268411     0.25539538     0              1.3388922      5.3828447    
    128500   0.70401218     0.24666958     0              1.3021722      5.2719705    
    129000   0.70757013     0.2305396      0              1.2913766      5.0441028    
    129500   0.69762115     0.23354173     0              1.2794625      4.9883665    
    130000   0.7003726      0.21680304     0              1.266849       4.883492     
    130500   0.68020837     0.22015703     0              1.2399714      4.840911     
    131000   0.6551738      0.21253786     0              1.1948187      4.8028223    
    131500   0.62758043     0.19903751     0              1.1399485      4.6038787    
    132000   0.61230385     0.18974627     0              1.1077536      4.4767445    
    132500   0.60121212     0.17915065     0              1.0805285      4.2124622    
    133000   0.59049346     0.17873109     0              1.0640388      4.2245281    
    133500   0.57800744     0.18236905     0              1.0489569      4.2935389    
    134000   0.5746283      0.17108179     0              1.0326034      4.1316095    
    134500   0.52434423     0.1869439      0              0.97307621     4.3518907    
    135000   0.53608948     0.16834792     0              0.97208949     4.0700771    
    135500   0.53420649     0.17571628     0              0.97663475     4.1610947    
    136000   0.50379943     0.14900076     0              0.9043309      3.7588754    
    136500   0.49039601     0.1495439      0              0.88477874     3.7329954    
    137000   0.46821075     0.13668632     0              0.83865952     3.503442     
    137500   0.46068953     0.13810856     0              0.82880544     3.5302786    
    138000   0.44969824     0.14308872     0              0.81730671     3.5158719    
    138500   0.43060789     0.12807344     0              0.7736699      3.3536423    
    139000   0.42434553     0.12776207     0              0.76396957     3.313071     
    139500   0.40341023     0.11081539     0              0.71563526     3.0329185    
    140000   0.39341263     0.10770477     0              0.69753556     3.0633698    
    140500   0.3738293      0.10424879     0              0.66471893     2.9409179    
    141000   0.3661235      0.099509755    0              0.64842685     2.8631862    
    141500   0.35729137     0.10293174     0              0.63860711     2.8988625    
    142000   0.33666986     0.085592024    0              0.59035023     2.5792824    
    142500   0.33341913     0.087840449    0              0.58772494     2.6225591    
    143000   0.3037373      0.07461351     0              0.529997       2.3184606    
    143500   0.29290602     0.079607392    0              0.51875189     2.426038     
    144000   0.26978931     0.066389039    0              0.4708754      2.14375      
    144500   0.25949625     0.068013538    0              0.45706785     2.1601299    
    145000   0.24229112     0.06098143     0              0.42424065     1.9621364    
    145500   0.22761674     0.055041837    0              0.39630024     1.8627603    
    146000   0.21569165     0.049354069    0              0.37273357     1.7514485    
    146500   0.20371376     0.045229972    0              0.3506514      1.6451733    
    147000   0.18421444     0.040343771    0              0.3165305      1.5135323    
    147500   0.17581214     0.034638005    0              0.29822745     1.3805484    
    148000   0.16064319     0.030180373    0              0.2710275      1.2581541    
    148500   0.14537792     0.029884122    0              0.24784453     1.224305     
    149000   0.12988703     0.026744902    0              0.22148031     1.1606354    
    149500   0.11563171     0.022400042    0              0.19576292     1.0244481    
    150000   0.10134877     0.018472198    0              0.17042112     0.89751498   
Loop time of 36.9571 on 1 procs for 100000 steps with 2048 atoms

Performance: 2337844.311 tau/day, 2705.838 timesteps/s, 5.542 Matom-step/s
99.6% CPU use with 1 MPI tasks x 1 OpenMP threads

MPI task timing breakdown:
Section |  min time  |  avg time  |  max time  |%varavg| %total
---------------------------------------------------------------
Pair    | 7.0769     | 7.0769     | 7.0769     |   0.0 | 19.15
Neigh   | 24.853     | 24.853     | 24.853     |   0.0 | 67.25
Comm    | 1.7456     | 1.7456     | 1.7456     |   0.0 |  4.72
Output  | 0.026955   | 0.026955   | 0.026955   |   0.0 |  0.07
Modify  | 2.4264     | 2.4264     | 2.4264     |   0.0 |  6.57
Other   |            | 0.8278     |            |       |  2.24

Nlocal:           2048 ave        2048 max        2048 min
Histogram: 1 0 0 0 0 0 0 0 0 0
Nghost:           1468 ave        1468 max        1468 min
Histogram: 1 0 0 0 0 0 0 0 0 0
Neighs:           9198 ave        9198 max        9198 min
Histogram: 1 0 0 0 0 0 0 0 0 0

Total # of neighbors = 9198
Ave neighs/atom = 4.4912109
Neighbor list builds = 28264
Dangerous builds = 0
Total wall time: 0:01:01
Simulation density 0.9 completed.
LAMMPS (15 Sep 2022)
OMP_NUM_THREADS environment is not set. Defaulting to 1 thread. (src/comm.cpp:98)
  using 1 OpenMP thread(s) per MPI task
Lattice spacing in x,y,z = 1.5874011 1.5874011 1.5874011
Created orthogonal box = (0 0 0) to (12.699208 12.699208 12.699208)
  1 by 1 by 1 MPI processor grid
Created 2048 atoms
  using lattice units in orthogonal box = (0 0 0) to (12.699208 12.699208 12.699208)
  create_atoms CPU = 0.000 seconds
Generated 0 of 0 mixed pair_coeff terms from geometric mixing rule
Neighbor list info ...
  update: every = 1 steps, delay = 0 steps, check = yes
  max neighbors/atom: 2000, page size: 100000
  master list distance cutoff = 1.3
  ghost atom cutoff = 1.3
  binsize = 0.65, bins = 20 20 20
  1 neighbor lists, perpetual/occasional/extra = 1 0 0
  (1) pair lj/cut, perpetual
      attributes: half, newton on
      pair build: half/bin/atomonly/newton
      stencil: half/bin/3d
      bin: standard
Setting up Verlet run ...
  Unit style    : lj
  Current step  : 0
  Time step     : 0.01
Per MPI rank memory allocation (min/avg/max) = 3.169 | 3.169 | 3.169 Mbytes
   Step          Temp          E_pair         E_mol          TotEng         Press     
         0   3              0              0              4.4978027      2.9985352    
       500   3.1514273      1.8757536      0              6.6005864      25.820301    
      1000   3.0564449      1.8770021      0              6.4594308      26.120737    
      1500   3.0712356      1.8242079      0              6.4288119      25.382929    
      2000   3.0257239      1.8410842      0              6.377454       25.678116    
      2500   3.0253413      1.7718265      0              6.3076226      25.141098    
      3000   3.0939759      1.7890049      0              6.4277026      25.248513    
      3500   2.9618193      1.8427196      0              6.2832792      25.560937    
      4000   3.0230139      1.8348983      0              6.367205       25.665835    
      4500   3.0264797      1.8338448      0              6.3713476      25.653374    
      5000   3.0426604      1.8113085      0              6.3730705      25.221209    
      5500   3.0710753      1.8759526      0              6.4803162      25.942331    
      6000   3.0394475      1.8386068      0              6.395552       25.519921    
      6500   3.0410312      1.7402523      0              6.2995718      24.651891    
      7000   2.9980833      1.7732987      0              6.2682278      25.045677    
      7500   2.9653131      1.7568032      0              6.202601       24.623942    
      8000   3.0317218      1.7936173      0              6.3389795      25.000356    
      8500   3.0610067      1.8597946      0              6.4490627      25.775425    
      9000   3.0784133      1.8632244      0              6.4785897      25.70956     
      9500   2.9412306      1.8992655      0              6.3089571      26.131809    
     10000   3.0202135      1.9414355      0              6.4695438      26.665083    
     10500   2.9433017      1.8462555      0              6.2590523      25.516564    
     11000   3.0832074      1.8017015      0              6.4242544      25.222935    
     11500   2.8894001      1.8682835      0              6.2002674      25.603471    
     12000   3.0294672      1.7657302      0              6.3077122      24.923829    
     12500   2.9383285      1.7825067      0              6.1878473      24.836464    
     13000   2.9671956      1.8638864      0              6.3125065      25.763581    
     13500   2.9575871      1.9082155      0              6.3424299      26.104366    
     14000   3.0345284      1.7419418      0              6.2915119      24.647328    
     14500   3.1011454      1.84643        0              6.4958768      25.909025    
     15000   2.9249918      1.8720863      0              6.2574317      25.537351    
     15500   2.9884195      1.8502642      0              6.3307047      25.639872    
     16000   2.9543455      1.7534269      0              6.1827812      24.780009    
     16500   2.9851958      1.8493029      0              6.3249101      25.421276    
     17000   3.1090266      1.7863406      0              6.4476034      25.043184    
     17500   3.0034103      1.8204619      0              6.3233775      25.430079    
     18000   3.1446701      1.8337426      0              6.5484445      25.720405    
     18500   3.0599536      1.8558879      0              6.4435772      25.656203    
     19000   3.0114868      1.7134816      0              6.2285061      24.279552    
     19500   3.0407611      1.7868423      0              6.3457569      25.287662    
     20000   2.887208       1.7676361      0              6.0963335      24.739127    
     20500   3.0142966      1.7898332      0              6.3090704      24.991884    
     21000   2.9185451      1.887796       0              6.263476       25.830891    
     21500   2.9869613      1.832928       0              6.3111822      25.615601    
     22000   3.0833604      1.7300841      0              6.3528663      24.594909    
     22500   3.0243029      1.827091       0              6.3613304      25.392062    
     23000   3.1563418      1.8890644      0              6.6212652      26.011319    
     23500   3.001827       1.7346029      0              6.2351447      24.626286    
     24000   3.0149939      1.7518052      0              6.2720879      24.779592    
     24500   2.9949629      1.8156129      0              6.3058636      25.474472    
     25000   3.0063673      1.7347949      0              6.2421439      24.552565    
     25500   2.9882958      1.8751766      0              6.3554317      25.897419    
     26000   3.1065144      1.8270657      0              6.484562       25.506786    
     26500   3.0068679      1.7448213      0              6.2529209      25.05444     
     27000   2.9896248      1.8740437      0              6.3562913      25.78172     
     27500   3.0639654      1.9532504      0              6.5469544      26.612288    
     28000   3.0011868      1.863156       0              6.3627381      25.720361    
     28500   3.1231006      1.9437854      0              6.6261489      26.624159    
     29000   2.9782441      1.8055874      0              6.2707723      25.171029    
     29500   3.0143862      1.7867631      0              6.3061345      24.969095    
     30000   3.0535807      1.9033687      0              6.4815032      26.420652    
     30500   2.9427087      1.7954102      0              6.2073179      25.215618    
     31000   3.0223199      1.8759255      0              6.4071917      25.728485    
     31500   2.8633906      1.8913581      0              6.1843467      26.050688    
     32000   2.9913553      1.8388631      0              6.3237051      25.742943    
     32500   3.0146699      1.7929159      0              6.3127127      25.143942    
     33000   3.0609805      1.9219349      0              6.5111637      26.527484    
     33500   3.0801579      1.7330098      0              6.3509908      24.656231    
     34000   2.9762337      1.7973503      0              6.2595209      25.126172    
     34500   3.1248215      1.8080157      0              6.4929593      25.497233    
     35000   2.9570659      1.7943802      0              6.2278133      25.142883    
     35500   3.0287203      1.8716605      0              6.4125227      25.835779    
     36000   3.0286016      1.8672683      0              6.4079524      25.828544    
     36500   2.9958876      1.8315842      0              6.3232213      25.564521    
     37000   3.0790295      1.9223218      0              6.5386109      26.176549    
     37500   2.9919586      1.8105467      0              6.2962931      25.280573    
     38000   2.9986762      1.7802918      0              6.2761098      25.032081    
     38500   3.0079541      1.8390465      0              6.3487746      25.504019    
     39000   2.9915274      1.8513097      0              6.3364096      25.594365    
     39500   3.0173698      1.8184475      0              6.3422922      25.485493    
     40000   2.9965274      1.9487313      0              6.4413277      26.350131    
     40500   2.9949864      1.8032389      0              6.293525       25.3113      
     41000   3.0110022      1.8219245      0              6.3362226      25.586211    
     41500   2.9424049      1.8335161      0              6.2449683      25.43602     
     42000   3.0523338      1.8100489      0              6.3863141      25.361221    
     42500   3.0044949      1.7653684      0              6.2699102      24.965785    
     43000   3.0646989      1.8338603      0              6.428664       25.869782    
     43500   2.9689938      1.9170864      0              6.3684025      26.203764    
     44000   3.0780434      1.7504952      0              6.3653059      24.687794    
     44500   2.9598783      1.8592545      0              6.2969041      25.744136    
     45000   2.9919811      1.8399524      0              6.3257327      25.563497    
     45500   3.086379       1.8437634      0              6.4710714      25.535126    
     46000   3.0225486      1.8246358      0              6.3562449      25.363775    
     46500   3.0389865      1.7699574      0              6.3262114      24.905031    
     47000   3.0556227      1.7099036      0              6.2910997      24.424831    
     47500   2.9937099      1.7776842      0              6.2660564      25.006436    
     48000   2.9844147      1.7805268      0              6.254963       25.076117    
     48500   3.0209383      1.7385862      0              6.267781       24.805283    
     49000   3.1007426      1.8161459      0              6.4649888      25.448284    
     49500   2.8991177      1.8906654      0              6.2372185      25.985234    
     50000   3.0596333      1.8402791      0              6.4274881      25.618159    
Loop time of 27.0899 on 1 procs for 50000 steps with 2048 atoms

Performance: 1594691.585 tau/day, 1845.708 timesteps/s, 3.780 Matom-step/s
99.7% CPU use with 1 MPI tasks x 1 OpenMP threads

MPI task timing breakdown:
Section |  min time  |  avg time  |  max time  |%varavg| %total
---------------------------------------------------------------
Pair    | 4.7034     | 4.7034     | 4.7034     |   0.0 | 17.36
Neigh   | 19.505     | 19.505     | 19.505     |   0.0 | 72.00
Comm    | 1.1626     | 1.1626     | 1.1626     |   0.0 |  4.29
Output  | 0.0058792  | 0.0058792  | 0.0058792  |   0.0 |  0.02
Modify  | 1.2258     | 1.2258     | 1.2258     |   0.0 |  4.52
Other   |            | 0.4867     |            |       |  1.80

Nlocal:           2048 ave        2048 max        2048 min
Histogram: 1 0 0 0 0 0 0 0 0 0
Nghost:           1508 ave        1508 max        1508 min
Histogram: 1 0 0 0 0 0 0 0 0 0
Neighs:           9842 ave        9842 max        9842 min
Histogram: 1 0 0 0 0 0 0 0 0 0

Total # of neighbors = 9842
Ave neighs/atom = 4.8056641
Neighbor list builds = 20256
Dangerous builds = 0
Generated 0 of 0 mixed pair_coeff terms from geometric mixing rule
Setting up Verlet run ...
  Unit style    : lj
  Current step  : 50000
  Time step     : 0.01
Per MPI rank memory allocation (min/avg/max) = 3.311 | 3.311 | 3.311 Mbytes
   Step          Temp          E_pair         E_mol          TotEng         Press     
     50000   3.0596333      1.8402791      0              6.4274881      25.618159    
     50500   2.9663041      1.8183792      0              6.2656628      25.413688    
     51000   3.0088929      1.7943427      0              6.3054782      25.137616    
     51500   2.768458       1.849          0              5.9996593      25.415214    
     52000   2.9324017      1.8090283      0              6.2054831      25.072739    
     52500   2.8682508      1.6375544      0              5.9378298      23.516189    
     53000   2.9162741      1.7522612      0              6.1245364      24.610781    
     53500   2.9045871      1.775445       0              6.1301983      24.854995    
     54000   2.8702902      1.7384111      0              6.0417442      24.77896     
     54500   2.9450203      1.742075       0              6.1574485      24.570905    
     55000   2.8210153      1.6122937      0              5.8417504      23.30531     
     55500   2.850624       1.6986986      0              5.9725467      24.044749    
     56000   2.8058838      1.6213053      0              5.8280759      23.480795    
     56500   2.77949        1.7061373      0              5.8733365      24.177672    
     57000   2.7741888      1.6705173      0              5.8297687      23.822458    
     57500   2.7898162      1.6192134      0              5.8018945      23.616537    
     58000   2.7638585      1.6524381      0              5.7962015      23.652972    
     58500   2.7642847      1.7465674      0              5.8909699      24.558731    
     59000   2.7267332      1.6936461      0              5.7817487      24.160822    
     59500   2.7346442      1.766918       0              5.8668813      24.7254      
     60000   2.7247937      1.622897       0              5.7080919      23.439644    
     60500   2.8006971      1.5727743      0              5.7717686      22.955362    
     61000   2.7042945      1.6145152      0              5.6689762      23.314956    
     61500   2.7075441      1.7235865      0              5.7829195      24.320659    
     62000   2.7415289      1.4723739      0              5.5826593      22.198582    
     62500   2.7318081      1.4774699      0              5.5731812      22.140488    
     63000   2.7023668      1.5515713      0              5.6031422      22.579936    
     63500   2.6211621      1.5926029      0              5.5224263      22.872593    
     64000   2.6338852      1.5017357      0              5.4506344      22.225543    
     64500   2.6445354      1.5519087      0              5.5167749      22.603119    
     65000   2.6004515      1.5017678      0              5.4005404      22.392237    
     65500   2.5124439      1.615929       0              5.3827547      23.121457    
     66000   2.4963631      1.5191459      0              5.2618622      22.193228    
     66500   2.5568069      1.4760225      0              5.3093602      21.894657    
     67000   2.5931951      1.5000707      0              5.3879641      22.254043    
     67500   2.5777955      1.4792558      0              5.344061       22.028284    
     68000   2.5067873      1.4558361      0              5.2141809      21.469982    
     68500   2.4866851      1.4152105      0              5.1434169      21.343307    
     69000   2.4138296      1.420986       0              5.0399625      21.334364    
     69500   2.388106       1.4033553      0              4.9837652      21.020464    
     70000   2.3960683      1.3980277      0              4.9903753      21.034564    
     70500   2.3569239      1.4237585      0              4.9574181      21.171397    
     71000   2.39418        1.3415499      0              4.9310663      20.521425    
     71500   2.3806349      1.3581519      0              4.9273606      20.525971    
     72000   2.3407961      1.3667899      0              4.8762696      20.560012    
     72500   2.3716007      1.322104       0              4.8777681      20.23269     
     73000   2.2940631      1.433154       0              4.8725684      21.192368    
     73500   2.3084595      1.3600678      0              4.8210663      20.701765    
     74000   2.264682       1.3597357      0              4.7551         20.434043    
     74500   2.2950383      1.2534746      0              4.6943511      19.482508    
     75000   2.2293263      1.344485       0              4.6868417      20.284727    
     75500   2.1895098      1.3879453      0              4.6706063      20.806026    
     76000   2.1987545      1.292558       0              4.5890794      19.611666    
     76500   2.2461692      1.2403056      0              4.6079143      19.380295    
     77000   2.1618349      1.275          0              4.516169       19.723125    
     77500   2.2259817      1.2433835      0              4.5807258      19.419438    
     78000   2.2530121      1.1877626      0              4.5656305      18.622428    
     78500   2.1060792      1.2856661      0              4.4432424      19.592808    
     79000   2.135796       1.3104309      0              4.5125605      19.807683    
     79500   2.188664       1.2915828      0              4.5729757      19.619073    
     80000   2.203691       1.2784584      0              4.5823808      19.551794    
     80500   2.1629069      1.248193       0              4.4909692      19.340511    
     81000   2.1825063      1.2270766      0              4.4992376      19.292838    
     81500   2.1584322      1.1915317      0              4.4275991      18.76706     
     82000   2.0952977      1.2568118      0              4.3982237      19.4371      
     82500   2.1289229      1.1523657      0              4.3441908      18.381977    
     83000   2.0520179      1.1569096      0              4.2334335      18.252967    
     83500   2.0012232      1.1672473      0              4.1676164      18.373431    
     84000   1.9744094      1.1148202      0              4.0749883      17.846097    
     84500   1.9277872      1.1483858      0              4.0386547      17.996708    
     85000   1.9402369      1.0859632      0              3.9948975      17.698394    
     85500   1.9553535      1.10969        0              4.0412881      17.956517    
     86000   1.9557727      1.1189044      0              4.051131       17.753253    
     86500   1.960365       1.1147527      0              4.0538644      17.841414    
     87000   1.993014       1.1294543      0              4.1175155      17.945108    
     87500   1.87872        1.1228756      0              3.9395795      17.886814    
     88000   1.8714291      1.0829181      0              3.888691       17.562986    
     88500   1.8778053      1.1014359      0              3.9167685      17.638661    
     89000   1.8915227      1.0464146      0              3.8823134      17.169803    
     89500   1.8928464      1.0545873      0              3.8924705      16.993004    
     90000   1.8257038      1.0576756      0              3.7948941      17.07417     
     90500   1.8174344      1.0542104      0              3.7790309      17.032134    
     91000   1.7652738      1.0722415      0              3.7188593      17.225613    
     91500   1.7724568      1.0410447      0              3.6984317      16.904406    
     92000   1.7515174      1.0330818      0              3.6590751      16.818543    
     92500   1.7591345      0.9698798      0              3.6072931      16.190675    
     93000   1.7686947      0.97687984     0              3.6286264      16.287513    
     93500   1.7347912      0.99174422     0              3.5926604      16.443242    
     94000   1.656906       0.92348228     0              3.4076278      15.787133    
     94500   1.6869173      0.91941564     0              3.448556       15.465291    
     95000   1.6637167      0.97528676     0              3.4696433      16.183699    
     95500   1.6745161      0.91749913     0              3.4280468      15.630892    
     96000   1.6626345      0.90325724     0              3.3959913      15.384685    
     96500   1.6199081      0.91140733     0              3.340083       15.504804    
     97000   1.6373007      0.86861642     0              3.3233683      14.990829    
     97500   1.5971968      0.89368253     0              3.2883079      15.294127    
     98000   1.5861333      0.87878815     0              3.2568263      15.200618    
[...]
     55500   2.8523003      3.7975577      0              8.0739191      71.904392    
     56000   2.8682962      3.6456539      0              7.9459974      70.462359    
     56500   2.8319031      3.7153291      0              7.9611097      71.18106     
     57000   2.7687221      3.7564894      0              7.9075447      71.400062    
     57500   2.8504056      3.5589433      0              7.8324641      69.238348    
     58000   2.784579       3.6440132      0              7.8188423      69.905875    
     58500   2.7991867      3.5807718      0              7.7775016      69.491421    
     59000   2.812603       3.5124783      0              7.7293229      68.611718    
     59500   2.6666339      3.6947759      0              7.6927737      70.644035    
     60000   2.7418366      3.5280311      0              7.6387778      69.000093    
     60500   2.7315091      3.5389055      0              7.6341686      68.771945    
     61000   2.7315087      3.4415538      0              7.5368162      68.027035    
     61500   2.7204253      3.4629113      0              7.5415568      67.824229    
     62000   2.6772268      3.4890779      0              7.5029573      68.170649    
     62500   2.6464344      3.4557243      0              7.4234376      67.87612     
     63000   2.6354356      3.3910992      0              7.3423224      66.905964    
     63500   2.6310678      3.5027353      0              7.44741        68.283934    
     64000   2.5650347      3.3494733      0              7.1951467      66.271452    
     64500   2.6105126      3.3075139      0              7.2213708      65.971485    
     65000   2.5306437      3.2963041      0              7.0904162      65.532149    
     65500   2.5241465      3.3326566      0              7.1170276      66.113326    
     66000   2.5315735      3.3208592      0              7.1163652      66.264918    
     66500   2.4275126      3.2945545      0              6.9340454      65.648619    
     67000   2.5341948      3.2250816      0              7.0245177      64.933439    
     67500   2.4949719      3.0622195      0              6.80285        63.016146    
     68000   2.4813175      3.3006196      0              7.0207785      65.55503     
     68500   2.4572636      3.2314601      0              6.9155558      64.733483    
     69000   2.5369688      3.1809439      0              6.984539       64.016913    
     69500   2.4065437      3.1254446      0              6.7334976      63.411351    
     70000   2.4805762      3.1912349      0              6.9102823      64.391515    
     70500   2.404843       3.0319665      0              6.6374696      62.368231    
     71000   2.4445464      3.0970552      0              6.7620844      62.930203    
     71500   2.2965095      3.0255959      0              6.4686781      62.149049    
     72000   2.3505575      3.0990229      0              6.6231375      63.175704    
     72500   2.3186624      2.9600758      0              6.4363711      61.65962     
     73000   2.3136813      3.1139407      0              6.582768       62.980349    
     73500   2.2976156      3.0170152      0              6.4617558      61.986857    
     74000   2.285326       2.9760996      0              6.4024147      61.355908    
     74500   2.2863783      2.943704       0              6.3715969      60.93305     
     75000   2.2591993      2.9381233      0              6.3252675      60.809902    
     75500   2.286428       2.8827995      0              6.3107669      60.270682    
     76000   2.2166711      2.9092829      0              6.232666       60.961836    
     76500   2.2597258      2.8794397      0              6.2673734      60.114604    
     77000   2.1734426      2.8415174      0              6.1000894      59.356667    
     77500   2.2039065      2.8973305      0              6.201576       60.444419    
     78000   2.1209743      2.7836523      0              5.9635604      59.13081     
     78500   2.2308349      2.7603767      0              6.1049951      58.564534    
     79000   2.1247781      2.7240139      0              5.9096248      57.901281    
     79500   2.1825162      2.7282962      0              6.0004719      58.097787    
     80000   2.1382547      2.756974       0              5.96279        58.674444    
     80500   2.1540594      2.7327863      0              5.9622977      58.168539    
     81000   2.1219395      2.7417304      0              5.9230855      58.29547     
     81500   2.0758411      2.6894442      0              5.8016854      57.46411     
     82000   2.0336774      2.7041223      0              5.7531488      57.633372    
     82500   2.1094042      2.7035288      0              5.8660901      57.826713    
     83000   2.0446363      2.636418       0              5.7018749      56.555933    
     83500   2.034525       2.6539299      0              5.7042272      56.847001    
     84000   2.0039091      2.5790572      0              5.5834531      55.959127    
     84500   2.0405695      2.6043512      0              5.6637109      56.411271    
     85000   1.9089694      2.5992994      0              5.4613553      56.180927    
     85500   1.9947256      2.6163169      0              5.6069443      56.608786    
     86000   1.9517077      2.5571887      0              5.4833208      55.684543    
     86500   1.9437625      2.5429688      0              5.4571889      55.428076    
     87000   1.9422111      2.475011       0              5.3869052      54.223633    
     87500   1.9446873      2.5675704      0              5.483177       55.605425    
     88000   1.8504126      2.4823201      0              5.2565837      54.396158    
     88500   1.8786593      2.4897351      0              5.306348       54.46444     
     89000   1.8757459      2.452999       0              5.2652441      54.063551    
     89500   1.8863826      2.3951721      0              5.2233644      53.268417    
     90000   1.8456148      2.3950041      0              5.1620746      53.304601    
     90500   1.8527911      2.3388129      0              5.1166426      52.651108    
     91000   1.8168177      2.3176261      0              5.0415219      51.972941    
     91500   1.7905306      2.2736901      0              4.9581745      51.609958    
     92000   1.800328       2.2864892      0              4.9856625      51.739544    
     92500   1.7536068      2.2976192      0              4.9267449      51.997665    
     93000   1.7670322      2.2531664      0              4.9024205      51.319998    
     93500   1.7576346      2.3174476      0              4.9526121      51.906583    
     94000   1.7064914      2.2493473      0              4.8078345      50.909095    
     94500   1.7349256      2.2414119      0              4.8425296      50.990259    
     95000   1.7070731      2.2126693      0              4.7720286      50.695126    
     95500   1.6885137      2.2165046      0              4.7480383      50.460833    
     96000   1.6590686      2.1660289      0              4.6534167      50.099702    
     96500   1.6966037      2.1461489      0              4.6898118      49.862828    
     97000   1.6925339      2.1445895      0              4.6821507      49.506206    
     97500   1.5975057      2.1218734      0              4.5169619      49.143674    
     98000   1.6058547      2.2093147      0              4.6169205      50.664642    
     98500   1.5700916      2.049805       0              4.4037924      48.159895    
     99000   1.6036097      2.1140667      0              4.5183068      49.130563    
     99500   1.5402933      2.0361793      0              4.3454912      47.921939    
    100000   1.5967445      2.0487288      0              4.442676       47.884342    
    100500   1.5321031      2.0190112      0              4.3160437      47.550444    
    101000   1.5622422      2.0386387      0              4.3808578      48.240515    
    101500   1.5065209      1.9305099      0              4.1891879      46.570715    
    102000   1.4990987      1.9949484      0              4.2424984      47.363502    
    102500   1.4978072      1.9634797      0              4.2090935      46.796657    
    103000   1.4770258      1.8615158      0              4.0759728      45.425019    
    103500   1.4306705      1.873497       0              4.0184549      45.468756    
    104000   1.4707438      1.897337       0              4.1023756      45.88384     
    104500   1.4032669      1.8214232      0              3.9252958      44.810721    
    105000   1.4453278      1.8453765      0              4.0123096      45.18335     
    105500   1.3938143      1.8052145      0              3.894915       44.459671    
    106000   1.3959801      1.7397771      0              3.8327249      43.610675    
    106500   1.3688308      1.760542       0              3.8127857      43.721883    
    107000   1.3702871      1.7721129      0              3.8265398      44.250083    
    107500   1.3498981      1.7080697      0              3.7319282      42.860973    
    108000   1.3352414      1.7182227      0              3.7201068      43.034076    
    108500   1.3261712      1.6921318      0              3.6804174      42.770665    
    109000   1.3237183      1.6814311      0              3.6660391      42.588872    
    109500   1.2760115      1.7037319      0              3.6168145      42.802895    
    110000   1.3031224      1.6592853      0              3.6130144      42.092885    
    110500   1.2659134      1.5923802      0              3.4903231      41.207444    
    111000   1.2630192      1.5677674      0              3.461371       40.797857    
    111500   1.2110615      1.5951367      0              3.410842       41.073501    
    112000   1.2304356      1.6167159      0              3.4614681      41.477035    
    112500   1.163382       1.5646727      0              3.3088936      40.451712    
    113000   1.1581679      1.551396       0              3.2877996      40.3734      
    113500   1.1560978      1.5091134      0              3.2424133      39.766084    
    114000   1.1744549      1.4517147      0              3.2125368      38.827938    
    114500   1.1223224      1.4888103      0              3.1714718      39.421272    
    115000   1.1252654      1.4491758      0              3.1362498      38.787758    
    115500   1.1205706      1.4489493      0              3.1289844      38.842204    
    116000   1.0734034      1.4216536      0              3.0309726      38.158889    
    116500   1.0921622      1.4074013      0              3.0448446      38.155895    
    117000   1.048432       1.3813248      0              2.9532049      37.430509    
    117500   1.0411778      1.3702056      0              2.9312097      37.443091    
    118000   1.0123471      1.3683558      0              2.8861349      37.352705    
    118500   1.0298273      1.2959508      0              2.8399375      36.115105    
    119000   0.9973643      1.3090447      0              2.8043607      36.288498    
    119500   1.0318011      1.3132135      0              2.8601595      36.447547    
    120000   0.94397866     1.2844114      0              2.699688       35.868174    
    120500   0.93904488     1.2492289      0              2.6571084      35.294275    
    121000   0.94444299     1.2168571      0              2.6328298      34.661192    
    121500   0.93049874     1.2229119      0              2.6179785      34.782408    
    122000   0.90909927     1.1818773      0              2.5448604      34.15803     
    122500   0.88509434     1.184447       0              2.5114402      34.069923    
    123000   0.897879       1.1216683      0              2.4678292      32.869964    
    123500   0.85422441     1.1282923      0              2.4090033      33.195967    
    124000   0.85842274     1.106692       0              2.3936974      32.83528     
    124500   0.81896441     1.0836         0              2.3114468      32.247455    
    125000   0.82375097     1.0982679      0              2.333291       32.444419    
    125500   0.82346442     1.0172564      0              2.2518499      31.145707    
    126000   0.81998379     1.0258308      0              2.2552059      31.21198     
    126500   0.76497101     1.0230131      0              2.1699094      31.186693    
    127000   0.7797852      1.0284972      0              2.1976039      31.242236    
    127500   0.7481721      0.97842179     0              2.100132       30.523839    
    128000   0.74607547     0.99873942     0              2.1173062      30.711719    
    128500   0.72302496     0.93283112     0              2.016839       29.312839    
    129000   0.73596239     0.91070644     0              2.014111       29.086305    
    129500   0.69150883     0.91423092     0              1.9509877      28.882466    
    130000   0.68338818     0.86317319     0              1.8877549      28.077682    
    130500   0.68208114     0.85549251     0              1.8781147      28.028937    
    131000   0.65075106     0.84315816     0              1.8188081      27.763979    
    131500   0.62921723     0.81628331     0              1.7596483      27.150071    
    132000   0.62638557     0.80847764     0              1.7475972      27.114851    
    132500   0.58436338     0.78408794     0              1.660205       26.395379    
    133000   0.59574118     0.76405801     0              1.6572335      26.139398    
    133500   0.58471902     0.74626245     0              1.6229127      25.668546    
    134000   0.56784599     0.72457312     0              1.5759262      25.313279    
    134500   0.5461914      0.69441462     0              1.5133017      24.619614    
    135000   0.53212845     0.71310001     0              1.5109029      25.126306    
    135500   0.51307393     0.65305234     0              1.4222874      23.899362    
    136000   0.50591188     0.66756033     0              1.4260576      24.064422    
    136500   0.4885444      0.6498957      0              1.3823545      23.685409    
    137000   0.48808729     0.61241376     0              1.3441872      23.053983    
    137500   0.47694393     0.58476308     0              1.2998297      22.231647    
    138000   0.45907031     0.57157476     0              1.259844       21.87064     
    138500   0.43817058     0.56160375     0              1.2185387      21.716783    
    139000   0.43381756     0.52712823     0              1.1775368      21.067968    
    139500   0.40105313     0.53499543     0              1.1362814      21.052122    
    140000   0.40565076     0.48723946     0              1.0954185      19.973857    
    140500   0.37907944     0.48922546     0              1.057567       20.016347    
    141000   0.36355353     0.46811295     0              1.013177       19.445093    
    141500   0.35446902     0.44226541     0              0.97370932     18.736408    
    142000   0.33655627     0.42780554     0              0.93239344     18.466325    
    142500   0.32259565     0.40709254     0              0.89074974     17.976654    
    143000   0.30596674     0.39269779     0              0.8514238      17.559785    
    143500   0.28617135     0.38187762     0              0.81092505     17.183699    
    144000   0.28128502     0.34569644     0              0.76741796     16.267521    
    144500   0.26400977     0.33245343     0              0.72827472     15.909157    
    145000   0.24669931     0.31853908     0              0.68840737     15.469274    
    145500   0.22897625     0.30087109     0              0.64416777     14.95462     
    146000   0.21731706     0.27945168     0              0.60526809     14.405101    
    146500   0.20691595     0.25205961     0              0.56228198     13.45336     
    147000   0.19099299     0.2359615      0              0.52231109     13.003262    
    147500   0.17500872     0.21942335     0              0.48180825     12.437364    
    148000   0.16101118     0.19987706     0              0.4412759      11.839343    
    148500   0.14593909     0.18079229     0              0.39959403     11.093312    
    149000   0.13514293     0.15586808     0              0.35848349     10.21645     
    149500   0.11685193     0.14367471     0              0.31886703     9.8103272    
    150000   0.10301023     0.12386969     0              0.27830959     8.9199605    
Loop time of 37.4836 on 1 procs for 100000 steps with 2048 atoms

Performance: 2305010.150 tau/day, 2667.836 timesteps/s, 5.464 Matom-step/s
99.3% CPU use with 1 MPI tasks x 1 OpenMP threads

MPI task timing breakdown:
Section |  min time  |  avg time  |  max time  |%varavg| %total
---------------------------------------------------------------
Pair    | 15.362     | 15.362     | 15.362     |   0.0 | 40.98
Neigh   | 17.32      | 17.32      | 17.32      |   0.0 | 46.21
Comm    | 1.41       | 1.41       | 1.41       |   0.0 |  3.76
Output  | 0.13388    | 0.13388    | 0.13388    |   0.0 |  0.36
Modify  | 2.4285     | 2.4285     | 2.4285     |   0.0 |  6.48
Other   |            | 0.8292     |            |       |  2.21

Nlocal:           2048 ave        2048 max        2048 min
Histogram: 1 0 0 0 0 0 0 0 0 0
Nghost:           1381 ave        1381 max        1381 min
Histogram: 1 0 0 0 0 0 0 0 0 0
Neighs:          12288 ave       12288 max       12288 min
Histogram: 1 0 0 0 0 0 0 0 0 0

Total # of neighbors = 12288
Ave neighs/atom = 6
Neighbor list builds = 26053
Dangerous builds = 0
Total wall time: 0:01:02
Simulation density 1.4 completed.
LAMMPS (15 Sep 2022)
OMP_NUM_THREADS environment is not set. Defaulting to 1 thread. (src/comm.cpp:98)
  using 1 OpenMP thread(s) per MPI task
Lattice spacing in x,y,z = 1.3867225 1.3867225 1.3867225
Created orthogonal box = (0 0 0) to (11.09378 11.09378 11.09378)
  1 by 1 by 1 MPI processor grid
Created 2048 atoms
  using lattice units in orthogonal box = (0 0 0) to (11.09378 11.09378 11.09378)
  create_atoms CPU = 0.000 seconds
Generated 0 of 0 mixed pair_coeff terms from geometric mixing rule
Neighbor list info ...
  update: every = 1 steps, delay = 0 steps, check = yes
  max neighbors/atom: 2000, page size: 100000
  master list distance cutoff = 1.3
  ghost atom cutoff = 1.3
  binsize = 0.65, bins = 18 18 18
  1 neighbor lists, perpetual/occasional/extra = 1 0 0
  (1) pair lj/cut, perpetual
      attributes: half, newton on
      pair build: half/bin/atomonly/newton
      stencil: half/bin/3d
      bin: standard
Setting up Verlet run ...
  Unit style    : lj
  Current step  : 0
  Time step     : 0.01
Per MPI rank memory allocation (min/avg/max) = 3.156 | 3.156 | 3.156 Mbytes
   Step          Temp          E_pair         E_mol          TotEng         Press     
         0   3              0.9375         0              5.4353027      55.122803    
       500   2.7089544      5.5266236      0              9.5880712      109.72584    
      1000   2.9271449      6.0995817      0              10.488155      116.35034    
      1500   3.078289       6.0481956      0              10.663374      116.28204    
ERROR: Lost atoms: original 2048 current 2042 (src/thermo.cpp:481)
Last command: run ${equil_steps}
--------------------------------------------------------------------------
Primary job  terminated normally, but 1 process returned
a non-zero exit code. Per user-direction, the job has been aborted.
--------------------------------------------------------------------------
--------------------------------------------------------------------------
mpirun detected that one or more processes exited with non-zero status, thus causing
the job to be terminated. The first process to do so was:

  Process name: [[59289,1],0]
  Exit code:    1
--------------------------------------------------------------------------
Simulation density 1.5 completed.
