#     Step Nr.          Time[fs]        Kin.[a.u.]          Temp[K]            Pot.[a.u.]        Cons Qty[a.u.]        UsedTime[s]
         0            0.000000         0.275037913       300.000000000     -1103.051194240     -1102.776156327         0.000000000
         1            0.500000         0.281203750       306.725440830     -1103.055843949     -1102.776244332        54.859877798
         2            1.000000         0.283567339       309.303546731     -1103.071568365     -1102.776615290        10.317397148
         3            1.500000         0.301155185       328.487642598     -1103.093913568     -1102.777131374        10.314678718
         4            2.000000         0.306907618       334.762159288     -1103.109077663     -1102.777393462        10.417465290
         5            2.500000         0.321065383       350.204863984     -1103.118915571     -1102.777471922        10.439507166
         6            3.000000         0.331428406       361.508421853     -1103.119249603     -1102.777360641        10.565631155
         7            3.500000         0.312234646       340.572660907     -1103.111200585     -1102.777087157         9.607558306
         8            4.000000         0.305317243       333.027443592     -1103.102929155     -1102.776828444         9.803255247
         9            4.500000         0.307462796       335.367724116     -1103.097392877     -1102.776679027         9.800297946
        10            5.000000         0.295141614       321.928287470     -1103.094201276     -1102.776608837        12.440759354
        11            5.500000         0.304586681       332.230577044     -1103.095014443     -1102.776666587         9.636912514
        12            6.000000         0.302314947       329.752663183     -1103.096691334     -1102.776759836         9.648017085
        13            6.500000         0.296680780       323.607146106     -1103.100030691     -1102.776863533         9.587996518
        14            7.000000         0.292846482       319.424852096     -1103.104279161     -1102.776973691         9.588888180
        15            7.500000         0.310605618       338.795784985     -1103.107143569     -1102.777037978         9.622783667
        16            8.000000         0.322665474       351.950178169     -1103.112078902     -1102.777162470         9.623754418
        17            8.500000         0.304186077       331.793614757     -1103.111939792     -1102.777156264         9.789436535
        18            9.000000         0.286997848       313.045404324     -1103.109725894     -1102.777049818         9.612123791
        19            9.500000         0.283262569       308.971115983     -1103.105278512     -1102.776880143         9.521659599
        20           10.000000         0.273390911       298.203519019     -1103.100220320     -1102.776717051        11.713743687
        21           10.500000         0.273365872       298.176207128     -1103.098462421     -1102.776606784         9.587940871
        22           11.000000         0.277857858       303.075880112     -1103.100522016     -1102.776616220         8.739209697
        23           11.500000         0.275049776       300.012940346     -1103.108285031     -1102.776829102         9.603159217
        24           12.000000         0.274679965       299.609565779     -1103.118340753     -1102.777034719         9.580248902
        25           12.500000         0.272205809       296.910858476     -1103.125543247     -1102.777162402         8.762084795
        26           13.000000         0.269318233       293.761209697     -1103.130710023     -1102.777156672         8.875119678
        27           13.500000         0.285995043       311.951585538     -1103.132369424     -1102.776989271         8.844368838
        28           14.000000         0.281632835       307.193469601     -1103.134731064     -1102.776830809         8.768498282
        29           14.500000         0.287569381       313.668808480     -1103.139963105     -1102.776835161         8.716931815
        30           15.000000         0.306655719       334.487398277     -1103.146809566     -1102.776969576        11.857603818
        31           15.500000         0.323999182       353.404930927     -1103.152778190     -1102.777025053         8.643098434
        32           16.000000         0.318119033       346.991107776     -1103.156207884     -1102.776987160         8.708600401
        33           16.500000         0.302331711       329.770948042     -1103.158891738     -1102.776909647         8.861189747
        34           17.000000         0.311515166       339.787882285     -1103.163551209     -1102.776906061         8.688745250
        35           17.500000         0.312755676       341.140979520     -1103.170507473     -1102.777027542         8.703527150
        36           18.000000         0.313458089       341.907142150     -1103.177636873     -1102.777227674         8.764470745
        37           18.500000         0.324391665       353.833035413     -1103.180291061     -1102.777322315         8.632080004
        38           19.000000         0.304370967       331.995285025     -1103.176757783     -1102.777230847         8.631025145
        39           19.500000         0.309964613       338.096602770     -1103.175030537     -1102.777093073         8.665704585
        40           20.000000         0.302857906       330.344900139     -1103.173155715     -1102.776972067        10.873737085
        41           20.500000         0.313098773       341.515215255     -1103.175532823     -1102.777004434         8.702157529
        42           21.000000         0.304610903       332.256997181     -1103.179331536     -1102.777140501         8.629043075
        43           21.500000         0.308397486       336.387245039     -1103.181492799     -1102.777207824         8.676970626
        44           22.000000         0.310380591       338.550334675     -1103.182442717     -1102.777235486         8.646158101
        45           22.500000         0.299522086       326.706325268     -1103.182048067     -1102.777273675         8.744973681
        46           23.000000         0.289028204       315.260032799     -1103.178865818     -1102.777243513         8.776128982
        47           23.500000         0.277580641       302.773502940     -1103.178566161     -1102.777257435         8.630013249
        48           24.000000         0.290873443       317.272742515     -1103.180380548     -1102.777310690         8.701122718
        49           24.500000         0.287292540       313.366841405     -1103.181990056     -1102.777344001         8.643457627
        50           25.000000         0.286251300       312.231099612     -1103.183119229     -1102.777409145        11.291163875
        51           25.500000         0.273005619       297.783258548     -1103.182843176     -1102.777419632         8.658222626
        52           26.000000         0.279195168       304.534562805     -1103.184535511     -1102.777405661         8.648367669
        53           26.500000         0.281390452       306.929088283     -1103.182225568     -1102.777270664         8.640314455
        54           27.000000         0.286340103       312.327963021     -1103.182397830     -1102.777148763         8.671730296
        55           27.500000         0.273504246       298.327139650     -1103.185456300     -1102.777096763         8.765840101
        56           28.000000         0.278256693       303.510913332     -1103.194020137     -1102.777246555         8.705189317
        57           28.500000         0.289390247       315.654933994     -1103.205361181     -1102.777538060         8.654582805
        58           29.000000         0.294969540       321.740596419     -1103.210739654     -1102.777649384         8.688032818
        59           29.500000         0.301451148       328.810466688     -1103.213437744     -1102.777654376         8.649906719
        60           30.000000         0.303280866       330.806248078     -1103.212182510     -1102.777562515        10.831822299
        61           30.500000         0.291619954       318.087005896     -1103.208843542     -1102.777453906         8.588116502
        62           31.000000         0.294577141       321.312583777     -1103.204165479     -1102.777317935         8.618955535
        63           31.500000         0.302337818       329.777609852     -1103.201275793     -1102.777235926         8.681375698
        64           32.000000         0.318254081       347.138412162     -1103.200991765     -1102.777222633         7.796800810
        65           32.500000         0.317898790       346.750875183     -1103.200778334     -1102.777244433         8.767421667
        66           33.000000         0.313170665       341.593632262     -1103.198384691     -1102.777196663         8.764381006
        67           33.500000         0.311479565       339.749049516     -1103.197595837     -1102.777180192         8.711316684
        68           34.000000         0.321567803       350.752883025     -1103.200293240     -1102.777278158         8.764572000
        69           34.500000         0.346836860       378.315327964     -1103.203148685     -1102.777367369         7.981011054
        70           35.000000         0.351275851       383.157195864     -1103.203998027     -1102.777402514        10.638411336
        71           35.500000         0.340356247       371.246542455     -1103.201273035     -1102.777334962         7.948300887
        72           36.000000         0.325040477       354.540733218     -1103.198450758     -1102.777269378         8.794199317
        73           36.500000         0.318632916       347.551629628     -1103.193397061     -1102.777207376         8.794785693
        74           37.000000         0.294674740       321.419041015     -1103.188346742     -1102.777141104         8.906031094
        75           37.500000         0.305109592       332.800946433     -1103.186272710     -1102.777161571         8.061077325
        76           38.000000         0.285074563       310.947563742     -1103.185534481     -1102.777195162         8.886108784
        77           38.500000         0.281299097       306.829441966     -1103.188350770     -1102.777276299         7.909994205
        78           39.000000         0.290441901       316.802034547     -1103.192713081     -1102.777390954         7.898434049
        79           39.500000         0.299891168       327.108904469     -1103.194153342     -1102.777428276         7.973010227
        80           40.000000         0.285990041       311.946129469     -1103.191717193     -1102.777337958        10.395559274
        81           40.500000         0.295271290       322.069732857     -1103.188063875     -1102.777205272         7.879349232
        82           41.000000         0.275496532       300.500242988     -1103.185417585     -1102.777076434         7.841324270
        83           41.500000         0.284227629       310.023763147     -1103.186246846     -1102.777061680         7.864380190
        84           42.000000         0.305660675       333.402045142     -1103.189195133     -1102.777151397         7.869707120
        85           42.500000         0.309989905       338.124190800     -1103.191272617     -1102.777221581         7.924525059
        86           43.000000         0.301258013       328.599802548     -1103.194535343     -1102.777308450         8.860326516
        87           43.500000         0.297992848       325.038295798     -1103.197302395     -1102.777392804         7.835373963
        88           44.000000         0.311980042       340.294949402     -1103.200490537     -1102.777439422         7.822989732
        89           44.500000         0.310562472       338.748723310     -1103.200925497     -1102.777433102         7.862231144
        90           45.000000         0.293819793       320.486500215     -1103.197767249     -1102.777378643        10.330940543
        91           45.500000         0.294624049       321.363749171     -1103.194321991     -1102.777316954         7.917721928
        92           46.000000         0.279804575       305.199278807     -1103.189518190     -1102.777194323         7.869958925
        93           46.500000         0.283139074       308.836412393     -1103.183751968     -1102.777051296         8.729642764
        94           47.000000         0.269942046       294.441638806     -1103.179670750     -1102.776925709         7.901543459
        95           47.500000         0.276749626       301.867066583     -1103.180422800     -1102.776929019         7.881812965
        96           48.000000         0.285804555       311.743809330     -1103.180654139     -1102.776932807         8.058351650
        97           48.500000         0.301315807       328.662842441     -1103.182451396     -1102.776960418         8.827368579
        98           49.000000         0.293335784       319.958562438     -1103.183857665     -1102.776982529         8.770024385
        99           49.500000         0.298125052       325.182498294     -1103.185952163     -1102.777075364         8.724836154
       100           50.000000         0.278051353       303.286936199     -1103.188771444     -1102.777200650        10.119263769
       101           50.500000         0.287446111       313.534350247     -1103.190772920     -1102.777241732         7.867362539
       102           51.000000         0.298645905       325.750623035     -1103.189829935     -1102.777185274         7.855684690
       103           51.500000         0.291160114       317.585431400     -1103.185252833     -1102.777044612         7.924750666
       104           52.000000         0.282862853       308.535121717     -1103.179589319     -1102.776886653         7.868977892
       105           52.500000         0.278537512       303.817218310     -1103.175730896     -1102.776775845         7.907808140
       106           53.000000         0.281564374       307.118794887     -1103.178929639     -1102.776887941         7.968169244
       107           53.500000         0.291715726       318.191470797     -1103.184351252     -1102.777067333         8.014426922
       108           54.000000         0.296006123       322.871258242     -1103.189789160     -1102.777239877         7.969271545
       109           54.500000         0.298370059       325.449741677     -1103.194681411     -1102.777304480         7.848735429
       110           55.000000         0.282174269       307.784042523     -1103.194657749     -1102.777244380        11.102918442
       111           55.500000         0.281348841       306.883699750     -1103.193342430     -1102.777192904         7.840319733
       112           56.000000         0.297050333       324.010239552     -1103.192654288     -1102.777181912         7.831078456
       113           56.500000         0.274108287       298.986002586     -1103.190880505     -1102.777174518         8.743386643
       114           57.000000         0.274464786       299.374856802     -1103.185631436     -1102.777072958         8.747476073
       115           57.500000         0.271931142       296.611263448     -1103.182803421     -1102.776992658         7.897560923
       116           58.000000         0.279990867       305.402477721     -1103.181601559     -1102.776944492         8.738791495
       117           58.500000         0.264351007       288.343164912     -1103.184574715     -1102.777003092         7.965073573
       118           59.000000         0.280747984       306.228310116     -1103.187281010     -1102.777086365         7.772128520
       119           59.500000         0.300675127       327.964014684     -1103.189534182     -1102.777201584         7.699901730
       120           60.000000         0.291304265       317.742665848     -1103.189574333     -1102.777240149        10.582626729
       121           60.500000         0.290752759       317.141106023     -1103.187793492     -1102.777211800         7.791936911
       122           61.000000         0.291593479       318.058128580     -1103.185443640     -1102.777158896         7.810615530
       123           61.500000         0.284110865       309.896402202     -1103.184350641     -1102.777138029         8.698924165
       124           62.000000         0.283327909       309.042386354     -1103.184053183     -1102.777127470         7.857012020
       125           62.500000         0.287128671       313.188099799     -1103.185936485     -1102.777168086         7.933655833
       126           63.000000         0.286214818       312.191307332     -1103.187568598     -1102.777198822         7.874924030
       127           63.500000         0.297947044       324.988335189     -1103.189723630     -1102.777225430         7.940767966
       128           64.000000         0.301996318       329.405115387     -1103.188275540     -1102.777150034         8.029234487
       129           64.500000         0.293954864       320.633829772     -1103.187354738     -1102.777114215         7.886005880
       130           65.000000         0.298100947       325.156205316     -1103.190071038     -1102.777170014        11.220425550
       131           65.500000         0.293732475       320.391257139     -1103.192121337     -1102.777208111         7.858217825
       132           66.000000         0.298424863       325.509519739     -1103.193874431     -1102.777271329         7.901620131
       133           66.500000         0.312033639       340.353410603     -1103.192648261     -1102.777291934         7.850770449
       134           67.000000         0.311381373       339.641945803     -1103.191038904     -1102.777240952         7.867509803
       135           67.500000         0.321149299       350.296396490     -1103.188933166     -1102.777107828         7.858469561
       136           68.000000         0.323768587       353.153407785     -1103.187042125     -1102.776939880         7.829284960
       137           68.500000         0.324735555       354.208136109     -1103.187676903     -1102.776896915         7.881731940
       138           69.000000         0.308500790       336.499925596     -1103.191203977     -1102.777030052         7.931648322
       139           69.500000         0.296269394       323.158423502     -1103.195733124     -1102.777189361         7.920050630
       140           70.000000         0.318135088       347.008619206     -1103.201645861     -1102.777337227        11.261867831
       141           70.500000         0.299855436       327.069930491     -1103.203456987     -1102.777343176         7.775143629
       142           71.000000         0.310674568       338.870992492     -1103.200756435     -1102.777268273         8.707475782
       143           71.500000         0.285630890       311.554382005     -1103.196553077     -1102.777180799         7.817240472
       144           72.000000         0.293082691       319.682499856     -1103.192377916     -1102.777076777         7.855420223
       145           72.500000         0.292299830       318.828586496     -1103.190747361     -1102.777036577         7.822345340
       146           73.000000         0.282853710       308.525149066     -1103.193464810     -1102.777141932         7.822971338
       147           73.500000         0.289402352       315.668137494     -1103.194814564     -1102.777303411         7.860299213
       148           74.000000         0.295173609       321.963186386     -1103.193880134     -1102.777367072         7.867862026
       149           74.500000         0.300756997       328.053315978     -1103.187981775     -1102.777246734         7.983620357
       150           75.000000         0.292747481       319.316866251     -1103.183444938     -1102.777115296        11.403741359
       151           75.500000         0.289810815       316.113671881     -1103.178059009     -1102.776982349         7.871997009
       152           76.000000         0.278259836       303.514341089     -1103.174692945     -1102.776922353         7.865489103
       153           76.500000         0.285170991       311.052743878     -1103.171878305     -1102.776882792         7.720339721
       154           77.000000         0.264074731       288.041814569     -1103.169890539     -1102.776866877         7.793782695
       155           77.500000         0.256840200       280.150686587     -1103.172596632     -1102.776900978         7.755729762
       156           78.000000         0.255702377       278.909595634     -1103.175804028     -1102.776960975         7.808171174
       157           78.500000         0.258034001       281.452834744     -1103.182724610     -1102.777077260         7.880495893
       158           79.000000         0.285578297       311.497016564     -1103.189653284     -1102.777226291         8.749449381
       159           79.500000         0.298968865       326.102895172     -1103.191958960     -1102.777276378         8.140870793
       160           80.000000         0.286777093       312.804613156     -1103.191586934     -1102.777268814        11.380030012
       161           80.500000         0.277303942       302.471691678     -1103.189126714     -1102.777201612         7.938027087
       162           81.000000         0.273563483       298.391753206     -1103.185278118     -1102.777077334         8.795065077
       163           81.500000         0.293375160       320.001512724     -1103.181198092     -1102.776940187         7.914826291
       164           82.000000         0.285277057       311.168435639     -1103.179419464     -1102.776839918         8.738442597
       165           82.500000         0.288408539       314.584126764     -1103.177317050     -1102.776757640         7.829394341
       166           83.000000         0.290550462       316.920447991     -1103.180476736     -1102.776856272         8.763049067
       167           83.500000         0.290248930       316.591549615     -1103.186189115     -1102.777038194         8.731281550
       168           84.000000         0.294468705       321.194306245     -1103.189804821     -1102.777163631         7.887369868
       169           84.500000         0.289158701       315.402373503     -1103.187685098     -1102.777165721         7.912112648
       170           85.000000         0.295646115       322.478576762     -1103.183978505     -1102.777105992        11.739614664
       171           85.500000         0.260712853       284.374816190     -1103.178693395     -1102.776983467         7.868428968
       172           86.000000         0.263457603       287.368676126     -1103.176416818     -1102.776935399         8.675655529
       173           86.500000         0.271574629       296.222392986     -1103.176904301     -1102.776970731         8.702862158
       174           87.000000         0.267714599       292.012032005     -1103.176788268     -1102.777001003         7.810208485
       175           87.500000         0.261143811       284.844887519     -1103.179208891     -1102.777086208         8.673175148
       176           88.000000         0.262997188       286.866474518     -1103.180433257     -1102.777114106         7.829463798
       177           88.500000         0.272811190       297.571182595     -1103.183251718     -1102.777143903         7.776908001
       178           89.000000         0.277432462       302.611875982     -1103.183401770     -1102.777098195         7.836922509
       179           89.500000         0.281428883       306.971006930     -1103.183273420     -1102.777041336         7.822564485
       180           90.000000         0.287748307       313.863973993     -1103.185498944     -1102.777035494        11.695197694
       181           90.500000         0.287914069       314.044779873     -1103.187495849     -1102.777090840         8.716604129
       182           91.000000         0.280421930       305.872663889     -1103.192863214     -1102.777211074         8.709673193
       183           91.500000         0.287434478       313.521661386     -1103.194548506     -1102.777211680         7.845466211
       184           92.000000         0.282730603       308.390868734     -1103.195828779     -1102.777180702         7.821318685
       185           92.500000         0.278053840       303.289648888     -1103.198145682     -1102.777247694         7.851822428
       186           93.000000         0.292076248       318.584713172     -1103.199537716     -1102.777314583         7.839605358
       187           93.500000         0.286911540       312.951262720     -1103.199423764     -1102.777347901         7.855762643
       188           94.000000         0.293190665       319.800272750     -1103.196789752     -1102.777285732         7.866971067
       189           94.500000         0.290123006       316.454197171     -1103.191867835     -1102.777145366         7.811308975
       190           95.000000         0.276595457       301.698904950     -1103.185091529     -1102.776924023        11.481036016
       191           95.500000         0.265113111       289.174436368     -1103.178189806     -1102.776710655         7.980536205
       192           96.000000         0.258924648       282.424316394     -1103.177070816     -1102.776703037         7.882800772
       193           96.500000         0.272466514       297.195224324     -1103.180945418     -1102.776830387         7.824973425
       194           97.000000         0.276768855       301.888040159     -1103.188065893     -1102.777028395         7.820971817
       195           97.500000         0.301666413       329.045268384     -1103.195003515     -1102.777163544         7.757827316
       196           98.000000         0.301273070       328.616226661     -1103.197427947     -1102.777163188         7.755151755
       197           98.500000         0.292496172       319.042749088     -1103.195099082     -1102.777059429         7.800221366
       198           99.000000         0.281938387       307.526753053     -1103.192170397     -1102.776933208         7.765863120
       199           99.500000         0.274827737       299.770749613     -1103.188988079     -1102.776835237         7.818403261
       200          100.000000         0.273531378       298.356734232     -1103.184933592     -1102.776757801        11.890740139
       201          100.500000         0.265947052       290.084064541     -1103.182701226     -1102.776764757         7.975661714
       202          101.000000         0.271074357       295.676716835     -1103.184941277     -1102.776886513         8.028023954
       203          101.500000         0.278736754       304.034543469     -1103.184309873     -1102.776870680         7.891457906
       204          102.000000         0.277578806       302.771501960     -1103.185174760     -1102.776798252         7.895405761
       205          102.500000         0.290618364       316.994513091     -1103.187196197     -1102.776722230         7.913313203
       206          103.000000         0.298491771       325.582500377     -1103.191898742     -1102.776789492         7.844136450
       207          103.500000         0.296643261       323.566222264     -1103.197819020     -1102.776931202         7.812453989
       208          104.000000         0.300095486       327.331766378     -1103.201477737     -1102.777092601         7.806700628
       209          104.500000         0.297811870       324.840892968     -1103.203824731     -1102.777209491         7.861125802
       210          105.000000         0.295277281       322.076267647     -1103.201791582     -1102.777246070        11.280904261
       211          105.500000         0.300091500       327.327418628     -1103.194396032     -1102.777089303         7.944992873
       212          106.000000         0.287353317       313.433134525     -1103.187206840     -1102.776909861         8.075914207
       213          106.500000         0.277129060       302.280937423     -1103.181934727     -1102.776796109         7.989177110
       214          107.000000         0.283802880       309.560464806     -1103.180024705     -1102.776821174         7.978320711
       215          107.500000         0.278852091       304.160348170     -1103.181902940     -1102.776957303         7.951429452
       216          108.000000         0.282818466       308.486706358     -1103.185085532     -1102.777092203         7.920007135
       217          108.500000         0.294915208       321.681333498     -1103.188005774     -1102.777126233         7.919497249
       218          109.000000         0.276978789       302.117027777     -1103.188726007     -1102.777091298         7.894409721
       219          109.500000         0.271348285       295.975506959     -1103.186860588     -1102.777043591         7.946524393
       220          110.000000         0.287456407       313.545580758     -1103.185819147     -1102.777015473        10.679294987
       221          110.500000         0.279899151       305.302437816     -1103.185034854     -1102.776985159         7.859314009
       222          111.000000         0.266190672       290.349795189     -1103.184450763     -1102.776929666         7.884098219
       223          111.500000         0.272923408       297.693585838     -1103.183724461     -1102.776908252         7.879230381
       224          112.000000         0.270661215       295.226079146     -1103.183607034     -1102.776931475         7.938620974
       225          112.500000         0.280942145       306.440093038     -1103.185910682     -1102.777010415         7.898752030
       226          113.000000         0.284317444       310.121729814     -1103.186395330     -1102.777013341         7.898697671
       227          113.500000         0.294759125       321.511084222     -1103.188201251     -1102.776996581         7.907088329