ITEM: TIMESTEP
100000
ITEM: NUMBER OF ATOMS
400
ITEM: BOX BOUNDS pp pp pp
0.0000000000000000e+00 2.1081851067789195e+01
0.0000000000000000e+00 2.1081851067789195e+01
-5.2704627669472992e-01 5.2704627669472992e-01
ITEM: ATOMS id type xs ys zs
144 1 0.0562506 0.0275172 0.5
46 1 0.0993401 0.0128575 0.5
184 1 0.146303 0.00641207 0.5
236 1 0.218543 0.0276716 0.5
4 1 0.381678 0.0116852 0.5
283 1 0.542686 0.00140049 0.5
38 1 0.595849 0.0237114 0.5
252 1 0.701603 0.0307564 0.5
95 1 0.754186 0.0307518 0.5
237 1 0.806661 0.0192338 0.5
138 1 0.895357 0.00511645 0.5
145 1 0.171428 0.0447393 0.5
147 1 0.255872 0.0549166 0.5
394 1 0.307278 0.0355789 0.5
271 1 0.353799 0.0550701 0.5
298 1 0.430245 0.0348014 0.5
373 1 0.478036 0.0559826 0.5
126 1 0.523121 0.0485076 0.5
117 1 0.857883 0.0485269 0.5
220 1 0.903375 0.0533119 0.5
21 1 0.948739 0.0406369 0.5
65 1 0.994628 0.0315164 0.5
265 1 0.0264172 0.0644701 0.5
261 1 0.0712722 0.0855649 0.5
355 1 0.128037 0.0640757 0.5
174 1 0.212874 0.0742087 0.5
15 1 0.315497 0.0837509 0.5
350 1 0.400957 0.0768528 0.5
165 1 0.445609 0.0927019 0.5
273 1 0.510283 0.0931163 0.5
157 1 0.564395 0.0742193 0.5
140 1 0.629702 0.062525 0.5
30 1 0.678184 0.0686997 0.5
62 1 0.716237 0.0921128 0.5
385 1 0.768948 0.081947 0.5
51 1 0.814575 0.0785058 0.5
346 1 0.878361 0.0925202 0.5
233 1 0.947674 0.0878825 0.5
195 1 0.121546 0.119723 0.5
362 1 0.16582 0.0975797 0.5
332 1 0.225221 0.123438 0.5
104 1 0.263752 0.10117 0.5
325 1 0.359577 0.124487 0.5
248 1 0.409188 0.121252 0.5
6 1 0.599422 0.109913 0.5
296 1 0.643978 0.108402 0.5
202 1 0.842395 0.12312 0.5
300 1 0.996133 0.107926 0.5
52 1 0.0741925 0.140874 0.5
89 1 0.179084 0.141855 0.5
40 1 0.291777 0.142479 0.5
35 1 0.469025 0.141366 0.5
198 1 0.520709 0.13677 0.5
102 1 0.565815 0.143525 0.5
199 1 0.684951 0.126132 0.5
399 1 0.746218 0.134274 0.5
197 1 0.893568 0.134255 0.5
111 1 0.941694 0.139818 0.5
244 1 0.0335082 0.17655 0.5
219 1 0.116126 0.16432 0.5
284 1 0.158077 0.184699 0.5
204 1 0.243958 0.165376 0.5
77 1 0.330157 0.170363 0.5
191 1 0.379271 0.177556 0.5
27 1 0.431057 0.169745 0.5
172 1 0.608055 0.169676 0.5
45 1 0.654152 0.16889 0.5
3 1 0.706341 0.169373 0.5
101 1 0.792683 0.156632 0.5
279 1 0.873711 0.186634 0.5
307 1 0.927842 0.18565 0.5
32 1 0.973771 0.184054 0.5
311 1 0.0776387 0.187968 0.5
93 1 0.205029 0.194864 0.5
285 1 0.283533 0.190798 0.5
235 1 0.441694 0.213485 0.5
392 1 0.48061 0.190014 0.5
305 1 0.529105 0.191071 0.5
245 1 0.582929 0.218478 0.5
26 1 0.633671 0.213184 0.5
171 1 0.716608 0.216124 0.5
345 1 0.758647 0.19027 0.5
24 1 0.823475 0.193939 0.5
303 1 0.00362511 0.23059 0.5
42 1 0.0577269 0.231161 0.5
316 1 0.140726 0.229344 0.5
225 1 0.243808 0.219064 0.5
108 1 0.281299 0.247568 0.5
280 1 0.366249 0.223666 0.5
150 1 0.48513 0.23963 0.5
118 1 0.681863 0.242801 0.5
86 1 0.782348 0.231773 0.5
333 1 0.85368 0.233801 0.5
247 1 0.901999 0.230317 0.5
243 1 0.955638 0.233103 0.5
67 1 0.027813 0.272102 0.5
201 1 0.0960334 0.254647 0.5
7 1 0.17051 0.273445 0.5
96 1 0.210933 0.251247 0.5
387 1 0.324269 0.274004 0.5
178 1 0.381945 0.268596 0.5
122 1 0.429521 0.262073 0.5
63 1 0.546408 0.256871 0.5
374 1 0.591655 0.264591 0.5
246 1 0.639955 0.271328 0.5
177 1 0.732499 0.268776 0.5
223 1 0.779128 0.278806 0.5
234 1 0.929193 0.269199 0.5
270 1 0.97857 0.273578 0.5
148 1 0.0740527 0.294761 0.5
112 1 0.134015 0.300718 0.5
378 1 0.23818 0.290122 0.5
395 1 0.286168 0.297956 0.5
368 1 0.405813 0.30963 0.5
91 1 0.459013 0.309525 0.5
81 1 0.5123 0.287102 0.5
107 1 0.558381 0.302734 0.5
209 1 0.670829 0.312438 0.5
47 1 0.842586 0.287892 0.5
319 1 0.890679 0.294558 0.5
308 1 0.105586 0.334606 0.5
36 1 0.154326 0.342683 0.5
258 1 0.194639 0.316082 0.5
389 1 0.242247 0.342574 0.5
100 1 0.354009 0.314563 0.5
19 1 0.524122 0.337607 0.5
391 1 0.616659 0.314135 0.5
205 1 0.722933 0.312766 0.5
28 1 0.787009 0.335373 0.5
262 1 0.860862 0.33475 0.5
398 1 0.943389 0.314936 0.5
193 1 0.988941 0.329989 0.5
11 1 0.0476144 0.344287 0.5
348 1 0.196423 0.364692 0.5
267 1 0.289099 0.345492 0.5
306 1 0.336688 0.359026 0.5
381 1 0.38709 0.359684 0.5
179 1 0.433403 0.350634 0.5
5 1 0.479897 0.352084 0.5
39 1 0.574541 0.348505 0.5
12 1 0.644732 0.35774 0.5
183 1 0.691381 0.370986 0.5
33 1 0.736512 0.366666 0.5
251 1 0.826009 0.366564 0.5
44 1 0.929925 0.371572 0.5
241 1 0.0320813 0.389116 0.5
388 1 0.0799785 0.386174 0.5
367 1 0.126836 0.380945 0.5
297 1 0.252531 0.389793 0.5
141 1 0.301712 0.390538 0.5
58 1 0.360313 0.399803 0.5
167 1 0.419127 0.397375 0.5
20 1 0.465461 0.394887 0.5
2 1 0.517337 0.387143 0.5
344 1 0.565602 0.399877 0.5
287 1 0.608011 0.386083 0.5
384 1 0.655986 0.402344 0.5
211 1 0.783045 0.3974 0.5
218 1 0.881096 0.385428 0.5
268 1 0.976237 0.38043 0.5
134 1 0.0505586 0.433043 0.5
326 1 0.0968537 0.431265 0.5
72 1 0.163412 0.415958 0.5
168 1 0.20854 0.411574 0.5
155 1 0.268622 0.432469 0.5
79 1 0.322572 0.434149 0.5
293 1 0.604695 0.436285 0.5
214 1 0.703302 0.421866 0.5
309 1 0.748899 0.42829 0.5
363 1 0.840454 0.4152 0.5
98 1 0.909144 0.432318 0.5
115 1 0.958187 0.425125 0.5
61 1 0.00234418 0.449106 0.5
349 1 0.185831 0.455268 0.5
302 1 0.368443 0.448512 0.5
123 1 0.418955 0.447249 0.5
29 1 0.46889 0.440764 0.5
266 1 0.519764 0.438113 0.5
386 1 0.55978 0.465608 0.5
372 1 0.670758 0.4592 0.5
68 1 0.721076 0.467824 0.5
299 1 0.807993 0.457384 0.5
226 1 0.866583 0.455709 0.5
78 1 0.0796052 0.475302 0.5
337 1 0.136704 0.470384 0.5
94 1 0.232812 0.469521 0.5
239 1 0.288026 0.473579 0.5
289 1 0.334615 0.494964 0.5
288 1 0.395554 0.490292 0.5
310 1 0.49829 0.478402 0.5
334 1 0.612955 0.484389 0.5
9 1 0.777844 0.494061 0.5
217 1 0.906311 0.482989 0.5
57 1 0.956245 0.473905 0.5
106 1 0.033269 0.505489 0.5
114 1 0.112813 0.512882 0.5
139 1 0.164457 0.506597 0.5
76 1 0.250341 0.512165 0.5
230 1 0.296156 0.527496 0.5
22 1 0.361901 0.530633 0.5
55 1 0.461374 0.50072 0.5
313 1 0.524824 0.518205 0.5
133 1 0.575097 0.516528 0.5
317 1 0.623415 0.530304 0.5
375 1 0.669284 0.508492 0.5
74 1 0.73285 0.512278 0.5
41 1 0.825914 0.506945 0.5
371 1 0.871657 0.513211 0.5
257 1 0.935666 0.523274 0.5
292 1 0.985218 0.528626 0.5
304 1 0.0254418 0.550715 0.5
212 1 0.0689026 0.534824 0.5
255 1 0.146396 0.548982 0.5
119 1 0.203182 0.535794 0.5
124 1 0.434096 0.539942 0.5
54 1 0.490463 0.560092 0.5
120 1 0.689702 0.552571 0.5
132 1 0.779549 0.551908 0.5
269 1 0.823275 0.560115 0.5
260 1 0.0486007 0.593473 0.5
169 1 0.100204 0.574652 0.5
396 1 0.18456 0.581446 0.5
16 1 0.238654 0.568218 0.5
151 1 0.281724 0.581809 0.5
82 1 0.351584 0.583852 0.5
182 1 0.393897 0.566384 0.5
161 1 0.52976 0.582953 0.5
327 1 0.572939 0.5627 0.5
229 1 0.62236 0.581179 0.5
127 1 0.725336 0.581473 0.5
64 1 0.865586 0.581908 0.5
175 1 0.912411 0.563055 0.5
18 1 0.96395 0.573181 0.5
109 1 0.00075401 0.604893 0.5
228 1 0.0897482 0.622139 0.5
162 1 0.216294 0.613953 0.5
232 1 0.309916 0.624795 0.5
400 1 0.421465 0.612543 0.5
196 1 0.467394 0.609478 0.5
113 1 0.571005 0.610609 0.5
379 1 0.769442 0.596458 0.5
343 1 0.82695 0.607171 0.5
331 1 0.899681 0.622673 0.5
128 1 0.946347 0.622292 0.5
92 1 0.0302773 0.638517 0.5
358 1 0.122128 0.655 0.5
156 1 0.162697 0.62772 0.5
130 1 0.260225 0.630662 0.5
154 1 0.368385 0.625945 0.5
189 1 0.517763 0.638278 0.5
99 1 0.613839 0.628673 0.5
70 1 0.678878 0.630984 0.5
264 1 0.724698 0.633002 0.5
314 1 0.777917 0.64473 0.5
116 1 0.820917 0.654558 0.5
85 1 0.0158344 0.682932 0.5
192 1 0.0743686 0.667981 0.5
272 1 0.163788 0.680542 0.5
73 1 0.234235 0.67841 0.5
242 1 0.277863 0.672294 0.5
49 1 0.333357 0.66947 0.5
338 1 0.379867 0.670098 0.5
181 1 0.425078 0.660144 0.5
146 1 0.477893 0.659039 0.5
253 1 0.516467 0.684288 0.5
84 1 0.567431 0.663945 0.5
143 1 0.665287 0.679115 0.5
323 1 0.735031 0.67739 0.5
318 1 0.869775 0.661904 0.5
352 1 0.918374 0.665942 0.5
159 1 0.973071 0.663437 0.5
203 1 0.126753 0.709918 0.5
53 1 0.204119 0.712309 0.5
335 1 0.315882 0.713167 0.5
364 1 0.360663 0.713781 0.5
43 1 0.427444 0.71154 0.5
135 1 0.473693 0.707629 0.5
37 1 0.562644 0.71776 0.5
383 1 0.604696 0.701548 0.5
221 1 0.6951 0.714218 0.5
263 1 0.783774 0.697778 0.5
88 1 0.829906 0.701471 0.5
359 1 0.935317 0.709691 0.5
10 1 0.0367526 0.729532 0.5
185 1 0.0845223 0.722531 0.5
17 1 0.164666 0.739531 0.5
286 1 0.246428 0.726495 0.5
213 1 0.286124 0.74766 0.5
390 1 0.396383 0.743497 0.5
254 1 0.515926 0.73097 0.5
208 1 0.598007 0.74897 0.5
322 1 0.652498 0.732461 0.5
256 1 0.753481 0.737194 0.5
105 1 0.876206 0.718781 0.5
324 1 0.987274 0.720346 0.5
216 1 0.0112557 0.768597 0.5
69 1 0.0556551 0.776144 0.5
347 1 0.103456 0.767348 0.5
60 1 0.211269 0.757902 0.5
301 1 0.340904 0.757307 0.5
75 1 0.435982 0.767618 0.5
393 1 0.481853 0.763253 0.5
48 1 0.54655 0.763676 0.5
357 1 0.688292 0.761568 0.5
137 1 0.773672 0.78076 0.5
224 1 0.809 0.751418 0.5
240 1 0.856975 0.772572 0.5
295 1 0.905667 0.769593 0.5
66 1 0.957947 0.758111 0.5
215 1 0.0840315 0.812226 0.5
187 1 0.173942 0.800723 0.5
14 1 0.250129 0.785611 0.5
173 1 0.307824 0.795939 0.5
170 1 0.394588 0.790955 0.5
227 1 0.537765 0.811591 0.5
71 1 0.587101 0.793318 0.5
259 1 0.651195 0.785204 0.5
312 1 0.728942 0.792254 0.5
207 1 0.94078 0.804119 0.5
222 1 0.987499 0.809853 0.5
149 1 0.0322631 0.81798 0.5
31 1 0.127632 0.818053 0.5
136 1 0.220903 0.823236 0.5
125 1 0.265202 0.836657 0.5
160 1 0.314255 0.843604 0.5
142 1 0.356316 0.821573 0.5
277 1 0.438999 0.823066 0.5
339 1 0.483047 0.815783 0.5
180 1 0.620909 0.839848 0.5
152 1 0.678641 0.824007 0.5
377 1 0.734499 0.842885 0.5
80 1 0.781281 0.836086 0.5
13 1 0.835145 0.81367 0.5
294 1 0.887646 0.815045 0.5
59 1 0.0834775 0.870061 0.5
206 1 0.128631 0.864682 0.5
321 1 0.173548 0.850362 0.5
129 1 0.352773 0.871452 0.5
276 1 0.392879 0.847864 0.5
163 1 0.464559 0.868647 0.5
121 1 0.518809 0.858904 0.5
354 1 0.584261 0.867152 0.5
158 1 0.674694 0.868678 0.5
87 1 0.831535 0.864388 0.5
210 1 0.888977 0.86053 0.5
342 1 0.934284 0.851365 0.5
366 1 0.978613 0.855069 0.5
329 1 0.0316728 0.875251 0.5
83 1 0.170682 0.896085 0.5
25 1 0.227407 0.879648 0.5
188 1 0.283404 0.890547 0.5
281 1 0.421382 0.889275 0.5
166 1 0.531344 0.902479 0.5
315 1 0.635268 0.890771 0.5
320 1 0.713631 0.889603 0.5
275 1 0.777681 0.884414 0.5
330 1 0.864904 0.901315 0.5
34 1 0.944684 0.895525 0.5
164 1 0.990587 0.900863 0.5
365 1 0.0613797 0.920701 0.5
250 1 0.121499 0.913706 0.5
397 1 0.251336 0.924754 0.5
341 1 0.325512 0.909057 0.5
328 1 0.373855 0.910577 0.5
370 1 0.444688 0.92885 0.5
278 1 0.491672 0.932603 0.5
360 1 0.577849 0.923495 0.5
50 1 0.665364 0.922452 0.5
153 1 0.770641 0.933947 0.5
90 1 0.817343 0.913736 0.5
56 1 0.906423 0.923185 0.5
282 1 0.0176095 0.943722 0.5
290 1 0.109507 0.963715 0.5
103 1 0.157602 0.94736 0.5
340 1 0.205694 0.940306 0.5
369 1 0.290044 0.951616 0.5
380 1 0.352259 0.953802 0.5
176 1 0.39779 0.960084 0.5
23 1 0.539971 0.953088 0.5
361 1 0.617693 0.949158 0.5
336 1 0.713021 0.938085 0.5
131 1 0.819133 0.960529 0.5
382 1 0.864679 0.950225 0.5
356 1 0.921821 0.966858 0.5
238 1 0.964474 0.939706 0.5
353 1 0.0204364 0.990187 0.5
274 1 0.0639568 0.976868 0.5
291 1 0.188555 0.988957 0.5
200 1 0.234624 0.982645 0.5
190 1 0.283393 0.996234 0.5
351 1 0.335416 0.997321 0.5
97 1 0.441601 0.983431 0.5
186 1 0.48768 0.987838 0.5
194 1 0.581262 0.980119 0.5
8 1 0.637315 0.999789 0.5
1 1 0.676892 0.975423 0.5
231 1 0.728006 0.984535 0.5
249 1 0.776573 0.97853 0.5
110 1 0.849986 0.999787 0.5
376 1 0.967084 0.986236 0.5
