ITEM: TIMESTEP
100000
ITEM: NUMBER OF ATOMS
400
ITEM: BOX BOUNDS pp pp pp
0.0000000000000000e+00 2.5819888974716111e+01
0.0000000000000000e+00 2.5819888974716111e+01
-6.4549722436790280e-01 6.4549722436790280e-01
ITEM: ATOMS id type xs ys zs
325 1 0.0446247 0.971243 0.5
204 1 0.162584 0.983706 0.5
105 1 0.0679266 0.00665376 0.5
361 1 0.365697 0.0502503 0.5
334 1 0.289677 0.0807356 0.5
197 1 0.488403 0.825323 0.5
320 1 0.391505 0.93527 0.5
273 1 0.511349 0.955835 0.5
114 1 0.895436 0.967946 0.5
102 1 0.815624 0.162558 0.5
303 1 0.869199 0.163112 0.5
46 1 0.820992 0.0882613 0.5
69 1 0.997128 0.869725 0.5
85 1 0.11882 0.962832 0.5
213 1 0.068946 0.128785 0.5
156 1 0.121566 0.0879601 0.5
19 1 0.22751 0.0671962 0.5
229 1 0.873005 0.0581206 0.5
264 1 0.746804 0.026034 0.5
28 1 0.887204 0.0953735 0.5
236 1 0.980149 0.936819 0.5
70 1 0.193946 0.0466635 0.5
201 1 0.0418591 0.166679 0.5
125 1 0.242354 0.146698 0.5
93 1 0.258467 0.103077 0.5
235 1 0.357347 0.00249388 0.5
176 1 0.599066 0.0310758 0.5
91 1 0.701646 0.118969 0.5
270 1 0.956837 0.0236665 0.5
331 1 0.0199824 0.0991274 0.5
18 1 0.0904154 0.0372584 0.5
371 1 0.260182 0.929307 0.5
396 1 0.308764 0.118245 0.5
397 1 0.413918 0.0887987 0.5
124 1 0.592865 0.940077 0.5
6 1 0.57117 0.971337 0.5
391 1 0.966528 0.145172 0.5
188 1 0.872046 0.213408 0.5
381 1 0.954422 0.983595 0.5
212 1 0.942716 0.348543 0.5
7 1 0.0618319 0.0841082 0.5
222 1 0.0257198 0.209038 0.5
134 1 0.16712 0.0821645 0.5
346 1 0.408775 0.196232 0.5
300 1 0.58303 0.117687 0.5
33 1 0.459387 0.989886 0.5
228 1 0.293629 0.995446 0.5
27 1 0.550307 0.0596824 0.5
353 1 0.892231 0.260172 0.5
92 1 0.00938974 1.00269 0.5
128 1 0.478532 0.128274 0.5
293 1 0.461615 0.0886048 0.5
162 1 0.486842 0.215586 0.5
148 1 0.587999 0.0758064 0.5
297 1 0.664707 0.177093 0.5
170 1 0.767646 0.958577 0.5
318 1 0.915263 0.123022 0.5
59 1 0.967498 0.0902574 0.5
38 1 0.20399 0.150469 0.5
220 1 0.205101 0.205656 0.5
62 1 0.347517 0.149577 0.5
294 1 0.5184 0.0187125 0.5
327 1 0.618948 0.909555 0.5
45 1 0.817258 0.20142 0.5
246 1 0.750198 0.0731737 0.5
177 1 0.811677 0.250651 0.5
35 1 0.761566 0.159464 0.5
193 1 0.99256 0.31079 0.5
107 1 0.0098744 0.958096 0.5
21 1 0.12548 0.0241345 0.5
311 1 0.237989 0.224961 0.5
322 1 0.303995 0.219041 0.5
13 1 0.323034 0.181206 0.5
84 1 0.441769 0.172272 0.5
14 1 0.542171 0.132555 0.5
367 1 0.622188 0.20547 0.5
16 1 0.65885 0.217856 0.5
355 1 0.749305 0.123651 0.5
282 1 0.783865 0.105116 0.5
306 1 0.915877 0.170334 0.5
286 1 0.91738 0.209245 0.5
310 1 0.365382 0.266814 0.5
143 1 0.403093 0.235653 0.5
163 1 0.364732 0.230449 0.5
279 1 0.424964 0.131022 0.5
160 1 0.873733 0.361012 0.5
126 1 0.102332 0.202475 0.5
99 1 0.0802821 0.281116 0.5
338 1 0.77505 0.219852 0.5
115 1 0.889358 0.315431 0.5
372 1 0.950464 0.196084 0.5
10 1 0.937299 0.254346 0.5
398 1 0.448606 0.318361 0.5
151 1 0.33305 0.250636 0.5
394 1 0.423135 0.351702 0.5
95 1 0.573146 0.188842 0.5
339 1 0.613299 0.430253 0.5
289 1 0.807391 0.0469504 0.5
106 1 0.62726 0.339976 0.5
315 1 0.58155 0.320134 0.5
333 1 0.732142 0.300125 0.5
78 1 0.737001 0.252201 0.5
386 1 0.931992 0.390689 0.5
238 1 0.0151041 0.364 0.5
155 1 0.159514 0.132799 0.5
252 1 0.25322 0.290047 0.5
313 1 0.572041 0.226369 0.5
366 1 0.519311 0.234318 0.5
75 1 0.464019 0.435465 0.5
225 1 0.601244 0.282225 0.5
122 1 0.853045 0.253636 0.5
349 1 0.719438 0.203651 0.5
39 1 0.945877 0.468265 0.5
288 1 0.958717 0.293989 0.5
354 1 0.985866 0.205565 0.5
73 1 0.0639591 0.198726 0.5
174 1 0.475308 0.366985 0.5
260 1 0.413835 0.295287 0.5
262 1 0.633462 0.0776472 0.5
185 1 0.774189 0.262759 0.5
173 1 0.630035 0.385031 0.5
342 1 0.0777436 0.327571 0.5
215 1 0.00290499 0.262916 0.5
135 1 0.0386657 0.285377 0.5
240 1 0.313362 0.344547 0.5
109 1 0.388725 0.329383 0.5
76 1 0.276897 0.392853 0.5
205 1 0.448784 0.272903 0.5
390 1 0.550814 0.267062 0.5
138 1 0.536543 0.354975 0.5
25 1 0.590641 0.36431 0.5
399 1 0.701297 0.166968 0.5
37 1 0.675762 0.456979 0.5
11 1 0.720539 0.390285 0.5
232 1 0.0312258 0.469925 0.5
278 1 0.118399 0.29012 0.5
57 1 0.0525409 0.0403312 0.5
66 1 0.166991 0.21997 0.5
375 1 0.274405 0.242055 0.5
280 1 0.325399 0.303986 0.5
265 1 0.350196 0.334009 0.5
359 1 0.557451 0.436867 0.5
189 1 0.690069 0.555654 0.5
251 1 0.755838 0.571386 0.5
291 1 0.696824 0.359237 0.5
82 1 0.802914 0.329685 0.5
377 1 0.0833689 0.479966 0.5
195 1 0.0506891 0.354092 0.5
171 1 0.362107 0.458007 0.5
182 1 0.51029 0.428146 0.5
221 1 0.565421 0.51922 0.5
307 1 0.589339 0.460142 0.5
94 1 0.614006 0.489584 0.5
32 1 0.677875 0.389812 0.5
242 1 0.981207 0.389058 0.5
67 1 0.0986852 0.361142 0.5
304 1 0.154144 0.182129 0.5
234 1 0.221902 0.350611 0.5
253 1 0.162545 0.376718 0.5
89 1 0.238914 0.395906 0.5
96 1 0.268395 0.437447 0.5
351 1 0.321378 0.471489 0.5
42 1 0.49936 0.264694 0.5
272 1 0.417369 0.440365 0.5
378 1 0.672745 0.331318 0.5
168 1 0.934583 0.431385 0.5
56 1 0.0709829 0.441901 0.5
164 1 0.907505 0.466617 0.5
41 1 0.205785 0.246232 0.5
175 1 0.241956 0.478208 0.5
116 1 0.505113 0.310609 0.5
2 1 0.387345 0.669594 0.5
49 1 0.367304 0.498393 0.5
226 1 0.542639 0.4765 0.5
140 1 0.467826 0.68366 0.5
9 1 0.511747 0.556933 0.5
243 1 0.417099 0.478281 0.5
380 1 0.659259 0.420943 0.5
183 1 0.723212 0.440455 0.5
200 1 0.933654 0.502732 0.5
147 1 0.135738 0.245522 0.5
31 1 0.0892792 0.402686 0.5
145 1 0.287483 0.315883 0.5
119 1 0.33642 0.375218 0.5
158 1 0.406718 0.587457 0.5
275 1 0.696836 0.591348 0.5
5 1 0.0397448 0.416261 0.5
72 1 0.898053 0.415984 0.5
247 1 0.184516 0.481987 0.5
206 1 0.00637499 0.616633 0.5
36 1 0.109119 0.447154 0.5
110 1 0.443192 0.543957 0.5
345 1 0.29107 0.277165 0.5
230 1 0.343305 0.414182 0.5
284 1 0.442994 0.390917 0.5
24 1 0.443018 0.654213 0.5
352 1 0.664677 0.520127 0.5
254 1 0.74029 0.614955 0.5
149 1 0.984862 0.476224 0.5
274 1 0.831446 0.360661 0.5
61 1 0.843678 0.434001 0.5
88 1 0.841659 0.580005 0.5
285 1 0.984174 0.514311 0.5
382 1 0.965033 0.663159 0.5
373 1 0.027568 0.529312 0.5
387 1 0.524223 0.746337 0.5
161 1 0.378801 0.363722 0.5
51 1 0.483608 0.639666 0.5
137 1 0.847725 0.47569 0.5
244 1 0.896046 0.509063 0.5
166 1 0.312412 0.821105 0.5
68 1 0.328077 0.527444 0.5
44 1 0.610619 0.529814 0.5
328 1 0.765799 0.405739 0.5
154 1 0.901893 0.554078 0.5
103 1 0.851897 0.392818 0.5
233 1 0.145351 0.41629 0.5
34 1 0.943752 0.562832 0.5
248 1 0.156138 0.283468 0.5
50 1 0.392712 0.622523 0.5
332 1 0.482394 0.520084 0.5
239 1 0.465407 0.603003 0.5
26 1 0.704635 0.513213 0.5
301 1 0.897418 0.746413 0.5
136 1 0.760394 0.342969 0.5
316 1 0.749689 0.476408 0.5
47 1 0.867903 0.537832 0.5
153 1 0.0836993 0.536011 0.5
23 1 0.216134 0.310526 0.5
3 1 0.229567 0.443939 0.5
101 1 0.129732 0.544087 0.5
263 1 0.344311 0.780293 0.5
267 1 0.520151 0.513621 0.5
341 1 0.468211 0.477021 0.5
198 1 0.667496 0.69333 0.5
379 1 0.648448 0.566104 0.5
52 1 0.528618 0.598879 0.5
324 1 0.88276 0.594392 0.5
374 1 0.808953 0.541203 0.5
63 1 0.0742141 0.673666 0.5
104 1 0.148223 0.679969 0.5
231 1 0.388988 0.554289 0.5
186 1 0.306261 0.572522 0.5
81 1 0.333987 0.689589 0.5
118 1 0.307088 0.770982 0.5
130 1 0.451327 0.739363 0.5
133 1 0.804935 0.490214 0.5
214 1 0.709979 0.635858 0.5
357 1 0.703118 0.689477 0.5
358 1 0.0239257 0.653399 0.5
202 1 0.926133 0.658793 0.5
227 1 0.110567 0.726427 0.5
292 1 0.290416 0.522744 0.5
15 1 0.439671 0.829737 0.5
98 1 0.573262 0.762323 0.5
312 1 0.486747 0.72145 0.5
152 1 0.624589 0.594152 0.5
141 1 0.86508 0.677094 0.5
393 1 0.779075 0.605903 0.5
308 1 0.18489 0.66686 0.5
376 1 0.0457431 0.593371 0.5
167 1 0.169319 0.554193 0.5
362 1 0.33984 0.631453 0.5
370 1 0.364857 0.583368 0.5
17 1 0.560392 0.660046 0.5
79 1 0.416071 0.517432 0.5
392 1 0.429647 0.6203 0.5
127 1 0.48932 0.771632 0.5
258 1 0.751646 0.655083 0.5
266 1 0.780837 0.738124 0.5
146 1 0.0087637 0.715856 0.5
330 1 0.961655 0.705337 0.5
385 1 0.225848 0.570821 0.5
165 1 0.368375 0.710157 0.5
395 1 0.420181 0.691009 0.5
60 1 0.612546 0.674498 0.5
29 1 0.652865 0.653232 0.5
65 1 0.745168 0.693628 0.5
87 1 0.938488 0.620248 0.5
255 1 0.991575 0.753498 0.5
196 1 0.187644 0.630349 0.5
178 1 0.0926389 0.587183 0.5
305 1 0.258289 0.606199 0.5
296 1 0.270836 0.760915 0.5
257 1 0.399806 0.836827 0.5
302 1 0.670626 0.788861 0.5
112 1 0.569015 0.696292 0.5
268 1 0.759919 0.52955 0.5
250 1 0.858579 0.767865 0.5
159 1 0.857381 0.841163 0.5
369 1 0.014382 0.5716 0.5
203 1 0.123381 0.499179 0.5
58 1 0.116101 0.790444 0.5
207 1 0.205057 0.703092 0.5
384 1 0.58591 0.559504 0.5
218 1 0.51631 0.869162 0.5
172 1 0.522868 0.642235 0.5
74 1 0.581629 0.62933 0.5
43 1 0.962817 0.794159 0.5
191 1 0.00976461 0.792646 0.5
356 1 0.0799863 0.827596 0.5
363 1 0.250812 0.533783 0.5
314 1 0.525557 0.831132 0.5
321 1 0.629388 0.759232 0.5
337 1 0.620484 0.799743 0.5
169 1 0.648884 0.875437 0.5
256 1 0.752741 0.813459 0.5
389 1 0.889817 0.802572 0.5
129 1 0.901724 0.690011 0.5
194 1 0.156354 0.840206 0.5
245 1 0.326672 0.855842 0.5
309 1 0.144855 0.58366 0.5
131 1 0.413624 0.753427 0.5
40 1 0.376931 0.752187 0.5
317 1 0.584469 0.823833 0.5
117 1 0.820429 0.653153 0.5
8 1 0.650527 0.0390347 0.5
20 1 0.847397 0.624419 0.5
150 1 0.822051 0.694636 0.5
111 1 0.0918043 0.870846 0.5
139 1 0.940879 0.856631 0.5
180 1 0.0362466 0.747603 0.5
400 1 0.069772 0.779702 0.5
287 1 0.443722 0.877566 0.5
97 1 0.666599 0.746326 0.5
237 1 0.799584 0.938146 0.5
350 1 0.817449 0.851228 0.5
340 1 0.95416 0.752796 0.5
1 1 0.190639 0.889357 0.5
179 1 0.393447 0.796242 0.5
269 1 0.328979 0.950778 0.5
223 1 0.539308 0.919682 0.5
343 1 0.719154 0.741367 0.5
199 1 0.50746 0.682977 0.5
90 1 0.659596 0.917431 0.5
108 1 0.808433 0.800166 0.5
77 1 0.0571675 0.934437 0.5
249 1 0.982999 0.827901 0.5
276 1 0.231994 0.877047 0.5
261 1 0.192239 0.776155 0.5
241 1 0.151521 0.762644 0.5
83 1 0.100014 0.633357 0.5
53 1 0.355924 0.822002 0.5
219 1 0.2648 0.650466 0.5
329 1 0.223818 0.659459 0.5
360 1 0.815323 0.751386 0.5
157 1 0.753428 0.854188 0.5
142 1 0.888979 0.866403 0.5
30 1 0.939797 0.950606 0.5
64 1 0.215273 0.949749 0.5
277 1 0.293591 0.705185 0.5
383 1 0.498933 0.0505444 0.5
22 1 0.288936 0.955749 0.5
281 1 0.694923 0.829009 0.5
121 1 0.623405 0.72082 0.5
344 1 0.908141 0.0420394 0.5
192 1 0.236029 0.798633 0.5
319 1 0.288204 0.0372655 0.5
100 1 0.245513 0.707926 0.5
80 1 0.280715 0.800213 0.5
259 1 0.232234 0.747892 0.5
364 1 0.219275 0.105075 0.5
181 1 0.520872 0.0961395 0.5
326 1 0.648404 0.826615 0.5
271 1 0.463467 0.951041 0.5
348 1 0.711809 0.000765059 0.5
217 1 0.92288 0.902108 0.5
4 1 0.0821012 0.969562 0.5
55 1 0.241189 0.835218 0.5
299 1 0.40542 0.0334482 0.5
283 1 0.246429 0.976411 0.5
123 1 0.38181 0.89835 0.5
12 1 0.250577 0.0184471 0.5
190 1 0.437635 0.922784 0.5
388 1 0.330361 0.0706721 0.5
210 1 0.46368 0.0356759 0.5
347 1 0.695245 0.87876 0.5
71 1 0.823669 0.899438 0.5
184 1 0.123791 0.900714 0.5
144 1 0.204419 0.997521 0.5
48 1 0.123027 0.158601 0.5
290 1 0.279078 0.844731 0.5
187 1 0.375356 0.0876922 0.5
224 1 0.500566 0.914207 0.5
365 1 0.663492 0.96088 0.5
211 1 0.849451 0.942137 0.5
113 1 0.700238 0.932208 0.5
132 1 0.805647 0.980032 0.5
336 1 0.0565771 0.887323 0.5
298 1 0.968689 0.896949 0.5
209 1 0.1663 0.933735 0.5
54 1 0.198291 0.846971 0.5
335 1 0.303205 0.918076 0.5
86 1 0.332142 0.0309629 0.5
323 1 0.368833 0.967553 0.5
120 1 0.687691 0.060361 0.5
208 1 0.889763 0.921688 0.5
368 1 0.0147112 0.908156 0.5
295 1 0.916768 0.000883648 0.5
216 1 -0.000793666 0.0427484 0.5
