ITEM: TIMESTEP
100000
ITEM: NUMBER OF ATOMS
400
ITEM: BOX BOUNDS pp pp pp
0.0000000000000000e+00 2.0000000000000000e+01
0.0000000000000000e+00 2.0000000000000000e+01
-5.0000000000000000e-01 5.0000000000000000e-01
ITEM: ATOMS id type xs ys zs
67 1 0.0379597 0.983779 0.5
316 1 0.078088 0.08906 0.5
372 1 0.103215 0.0426662 0.5
129 1 0.187304 0.0331248 0.5
297 1 0.291804 0.00375802 0.5
153 1 0.337557 0.0166309 0.5
45 1 0.42423 0.978109 0.5
306 1 0.477336 0.994588 0.5
194 1 0.525872 0.0065969 0.5
47 1 0.571083 0.0199598 0.5
125 1 0.632803 0.0330359 0.5
213 1 0.681365 0.035786 0.5
366 1 0.727604 0.039005 0.5
295 1 0.756291 0.999118 0.5
218 1 0.811287 0.0071673 0.5
33 1 0.859603 0.0180865 0.5
99 1 0.925099 0.0174402 0.5
51 1 0.0503832 0.0306558 0.5
395 1 0.147689 0.0604103 0.5
177 1 0.247496 0.0364017 0.5
381 1 0.391507 0.0190509 0.5
203 1 0.439274 0.0248215 0.5
397 1 0.494225 0.0476564 0.5
124 1 0.552525 0.0649929 0.5
286 1 0.599605 0.0682628 0.5
103 1 0.654177 0.0793079 0.5
169 1 0.707263 0.0838941 0.5
123 1 0.758595 0.0957613 0.5
55 1 0.781532 0.0458213 0.5
43 1 0.829204 0.0633531 0.5
174 1 0.88534 0.0736491 0.5
363 1 0.983665 0.082224 0.5
207 1 0.0296175 0.136984 0.5
394 1 0.0305357 0.0837102 0.5
110 1 0.11994 0.117174 0.5
92 1 0.300189 0.053903 0.5
386 1 0.359509 0.0582338 0.5
241 1 0.410153 0.0660667 0.5
113 1 0.468318 0.0891568 0.5
152 1 0.518309 0.0972715 0.5
195 1 0.567613 0.108655 0.5
231 1 0.616746 0.115573 0.5
81 1 0.933932 0.0859646 0.5
62 1 0.983267 0.12743 0.5
365 1 0.0450939 0.184015 0.5
392 1 0.0794894 0.145945 0.5
238 1 0.207955 0.0778584 0.5
182 1 0.259154 0.0867181 0.5
302 1 0.317863 0.0990917 0.5
344 1 0.667321 0.125752 0.5
44 1 0.723422 0.127812 0.5
17 1 0.769876 0.147836 0.5
46 1 0.806336 0.105927 0.5
53 1 0.868566 0.125168 0.5
154 1 0.922675 0.132071 0.5
178 1 0.969545 0.0339848 0.5
377 1 0.176873 0.116684 0.5
274 1 0.230273 0.123944 0.5
271 1 0.281775 0.13381 0.5
277 1 0.377009 0.107522 0.5
146 1 0.426468 0.115353 0.5
57 1 0.485837 0.141569 0.5
196 1 0.536907 0.150135 0.5
98 1 0.585586 0.153106 0.5
281 1 0.641989 0.167562 0.5
374 1 0.692345 0.167597 0.5
263 1 0.736735 0.186733 0.5
114 1 0.787503 0.198626 0.5
342 1 0.831189 0.153864 0.5
68 1 0.890232 0.169709 0.5
335 1 0.0146501 0.233611 0.5
237 1 0.098794 0.195123 0.5
89 1 0.143004 0.160469 0.5
327 1 0.194468 0.169185 0.5
126 1 0.242233 0.174752 0.5
362 1 0.333658 0.15121 0.5
184 1 0.393465 0.16 0.5
49 1 0.444431 0.171544 0.5
9 1 0.4982 0.190631 0.5
215 1 0.557674 0.194015 0.5
145 1 0.613708 0.206297 0.5
100 1 0.670359 0.211331 0.5
4 1 0.711723 0.235871 0.5
314 1 0.760033 0.248056 0.5
171 1 0.938846 0.180755 0.5
134 1 0.0806658 0.290613 0.5
375 1 0.112159 0.245748 0.5
71 1 0.300945 0.185222 0.5
141 1 0.409415 0.207846 0.5
311 1 0.456662 0.219571 0.5
287 1 0.516105 0.234485 0.5
210 1 0.570966 0.240927 0.5
248 1 0.676373 0.279236 0.5
112 1 0.807917 0.244233 0.5
321 1 0.848327 0.204995 0.5
198 1 0.951683 0.22683 0.5
83 1 0.992314 0.180492 0.5
256 1 0.062233 0.244909 0.5
334 1 0.0559268 0.382154 0.5
121 1 0.153543 0.206838 0.5
283 1 0.199329 0.220174 0.5
347 1 0.25842 0.231181 0.5
179 1 0.356228 0.195136 0.5
20 1 0.427447 0.254929 0.5
259 1 0.574885 0.294163 0.5
346 1 0.623583 0.263223 0.5
40 1 0.726204 0.288355 0.5
319 1 0.789033 0.293358 0.5
166 1 0.873392 0.256793 0.5
65 1 0.905709 0.217748 0.5
138 1 0.0288183 0.280833 0.5
208 1 0.0499838 0.331933 0.5
221 1 0.131511 0.292688 0.5
318 1 0.163614 0.25562 0.5
30 1 0.22871 0.27025 0.5
358 1 0.319019 0.234472 0.5
312 1 0.372097 0.245962 0.5
209 1 0.480569 0.26717 0.5
217 1 0.526561 0.28562 0.5
197 1 0.737644 0.340681 0.5
143 1 0.792909 0.343692 0.5
216 1 0.837017 0.291242 0.5
170 1 0.923762 0.267808 0.5
35 1 0.975492 0.267126 0.5
5 1 0.098891 0.333066 0.5
352 1 0.150011 0.341481 0.5
127 1 0.274571 0.283779 0.5
101 1 0.33321 0.286652 0.5
293 1 0.384671 0.295426 0.5
230 1 0.439032 0.301372 0.5
339 1 0.490519 0.325614 0.5
393 1 0.541765 0.337206 0.5
70 1 0.634631 0.373092 0.5
18 1 0.627532 0.311777 0.5
54 1 0.70731 0.382608 0.5
102 1 0.854011 0.338162 0.5
292 1 0.887482 0.300702 0.5
88 1 0.994106 0.317389 0.5
222 1 0.185784 0.30599 0.5
330 1 0.238531 0.317448 0.5
37 1 0.299514 0.328379 0.5
247 1 0.349194 0.332529 0.5
239 1 0.404331 0.345128 0.5
333 1 0.449797 0.352984 0.5
39 1 0.500101 0.372305 0.5
82 1 0.904898 0.349475 0.5
75 1 0.941797 0.313837 0.5
254 1 0.962295 0.360693 0.5
139 1 0.00494972 0.381177 0.5
280 1 0.110626 0.382216 0.5
367 1 0.175085 0.398957 0.5
93 1 0.228325 0.401408 0.5
108 1 0.265051 0.364885 0.5
158 1 0.321236 0.375093 0.5
12 1 0.592466 0.35003 0.5
298 1 0.682973 0.33071 0.5
118 1 0.706604 0.434921 0.5
188 1 0.763962 0.387441 0.5
25 1 0.87177 0.389541 0.5
15 1 0.921493 0.396008 0.5
353 1 0.127833 0.435675 0.5
359 1 0.157461 0.483884 0.5
22 1 0.190804 0.445886 0.5
74 1 0.239282 0.453882 0.5
249 1 0.207922 0.354313 0.5
132 1 0.388755 0.43635 0.5
323 1 0.368562 0.38281 0.5
300 1 0.417308 0.396603 0.5
373 1 0.466093 0.405851 0.5
116 1 0.547351 0.387407 0.5
272 1 0.594854 0.402043 0.5
32 1 0.667426 0.40999 0.5
69 1 0.754507 0.436124 0.5
304 1 0.823874 0.380561 0.5
376 1 0.929469 0.449088 0.5
7 1 0.979392 0.419522 0.5
165 1 0.0798648 0.42423 0.5
86 1 0.283914 0.410354 0.5
228 1 0.330968 0.423766 0.5
50 1 0.433046 0.490685 0.5
289 1 0.438229 0.443387 0.5
133 1 0.513671 0.426047 0.5
278 1 0.562299 0.437633 0.5
225 1 0.612781 0.448697 0.5
355 1 0.733754 0.484615 0.5
190 1 0.660146 0.458695 0.5
336 1 0.80602 0.424499 0.5
282 1 0.883599 0.435878 0.5
136 1 0.991065 0.469789 0.5
150 1 0.103055 0.478746 0.5
193 1 0.121555 0.521628 0.5
400 1 0.208978 0.49206 0.5
332 1 0.262642 0.498359 0.5
84 1 0.297849 0.460382 0.5
10 1 0.353083 0.468603 0.5
267 1 0.486145 0.464338 0.5
279 1 0.789645 0.47155 0.5
164 1 0.83768 0.462816 0.5
163 1 0.87954 0.487692 0.5
34 1 0.925563 0.497116 0.5
95 1 0.027308 0.429412 0.5
251 1 0.0680409 0.519934 0.5
337 1 0.0921137 0.574178 0.5
66 1 0.171898 0.531733 0.5
223 1 0.319857 0.507105 0.5
243 1 0.381006 0.506185 0.5
161 1 0.473627 0.516091 0.5
142 1 0.531801 0.485019 0.5
90 1 0.582705 0.494974 0.5
315 1 0.631624 0.497614 0.5
331 1 0.778276 0.52208 0.5
28 1 0.837028 0.527681 0.5
19 1 0.88576 0.546604 0.5
148 1 0.932659 0.554778 0.5
48 1 0.970851 0.515924 0.5
122 1 0.0554974 0.470242 0.5
105 1 0.0386385 0.567401 0.5
128 1 0.140164 0.570841 0.5
391 1 0.227606 0.535761 0.5
234 1 0.284081 0.548074 0.5
236 1 0.351025 0.547088 0.5
64 1 0.422476 0.540742 0.5
360 1 0.511598 0.550263 0.5
212 1 0.565261 0.552007 0.5
76 1 0.617356 0.547945 0.5
167 1 0.689421 0.495087 0.5
235 1 0.958106 0.599594 0.5
206 1 0.990704 0.563735 0.5
349 1 0.0201574 0.520775 0.5
226 1 0.0581855 0.613232 0.5
192 1 0.192546 0.576698 0.5
119 1 0.245143 0.581052 0.5
2 1 0.319544 0.589391 0.5
96 1 0.466476 0.565403 0.5
72 1 0.502028 0.60868 0.5
382 1 0.662982 0.539222 0.5
296 1 0.752985 0.581082 0.5
115 1 0.804327 0.570293 0.5
211 1 0.855566 0.585405 0.5
258 1 0.90486 0.592702 0.5
273 1 0.00810556 0.611887 0.5
6 1 0.110807 0.62149 0.5
191 1 0.162993 0.616026 0.5
229 1 0.216356 0.620422 0.5
8 1 0.277781 0.622711 0.5
290 1 0.376295 0.615766 0.5
189 1 0.420567 0.590009 0.5
155 1 0.457765 0.627124 0.5
399 1 0.599371 0.593306 0.5
135 1 0.646824 0.583424 0.5
181 1 0.699465 0.572769 0.5
340 1 0.728918 0.535048 0.5
42 1 0.771808 0.627896 0.5
60 1 0.823422 0.628284 0.5
97 1 0.873291 0.632243 0.5
308 1 0.929741 0.645899 0.5
328 1 0.0308272 0.656451 0.5
387 1 0.0824086 0.663025 0.5
31 1 0.131051 0.664682 0.5
227 1 0.181502 0.661911 0.5
85 1 0.327653 0.646206 0.5
275 1 0.390692 0.66281 0.5
245 1 0.469306 0.672337 0.5
350 1 0.554917 0.613499 0.5
140 1 0.592136 0.640118 0.5
262 1 0.655493 0.632694 0.5
307 1 0.714893 0.626902 0.5
268 1 0.979948 0.655478 0.5
345 1 0.0502216 0.703658 0.5
109 1 0.109542 0.708497 0.5
322 1 0.240966 0.664798 0.5
299 1 0.289605 0.678025 0.5
1 1 0.344365 0.690246 0.5
396 1 0.521659 0.655658 0.5
291 1 0.688118 0.66762 0.5
305 1 0.737412 0.671132 0.5
285 1 0.797518 0.674062 0.5
326 1 0.845151 0.674672 0.5
147 1 0.869679 0.741005 0.5
380 1 0.89374 0.689937 0.5
338 1 0.992772 0.705598 0.5
354 1 0.158949 0.70703 0.5
329 1 0.2104 0.709952 0.5
309 1 0.259214 0.718961 0.5
388 1 0.424619 0.698034 0.5
303 1 0.477271 0.721118 0.5
233 1 0.566973 0.681134 0.5
137 1 0.630187 0.673192 0.5
288 1 0.661555 0.70932 0.5
29 1 0.713111 0.712919 0.5
11 1 0.766221 0.713268 0.5
58 1 0.814673 0.728399 0.5
294 1 0.0184654 0.750579 0.5
144 1 0.0660064 0.749026 0.5
180 1 0.136157 0.751721 0.5
257 1 0.308934 0.724328 0.5
266 1 0.3783 0.727492 0.5
183 1 0.443166 0.765953 0.5
361 1 0.523503 0.73765 0.5
343 1 0.573665 0.729277 0.5
270 1 0.736334 0.761069 0.5
80 1 0.917066 0.739568 0.5
61 1 0.940838 0.696439 0.5
284 1 0.969664 0.753238 0.5
107 1 0.0467943 0.791108 0.5
379 1 0.0947999 0.787397 0.5
52 1 0.183861 0.769884 0.5
384 1 0.231996 0.765654 0.5
162 1 0.283492 0.777374 0.5
369 1 0.336038 0.775864 0.5
219 1 0.494423 0.77447 0.5
351 1 0.551801 0.778145 0.5
357 1 0.597363 0.786518 0.5
120 1 0.618923 0.74041 0.5
104 1 0.685096 0.754287 0.5
205 1 0.784308 0.768592 0.5
371 1 0.833036 0.773566 0.5
242 1 0.883331 0.788371 0.5
117 1 0.933155 0.785867 0.5
151 1 0.996731 0.79532 0.5
131 1 0.147481 0.804451 0.5
383 1 0.21291 0.810954 0.5
36 1 0.25843 0.829598 0.5
73 1 0.307456 0.826935 0.5
364 1 0.392927 0.780872 0.5
313 1 0.461206 0.820029 0.5
26 1 0.520172 0.824263 0.5
324 1 0.568971 0.825213 0.5
356 1 0.649258 0.78365 0.5
224 1 0.692544 0.809233 0.5
317 1 0.747557 0.809644 0.5
173 1 0.805509 0.814834 0.5
185 1 0.85374 0.826594 0.5
63 1 0.915812 0.83719 0.5
201 1 0.971121 0.842477 0.5
91 1 0.0237567 0.836932 0.5
385 1 0.0792389 0.835011 0.5
156 1 0.127229 0.846334 0.5
264 1 0.176035 0.845494 0.5
13 1 0.224686 0.868242 0.5
390 1 0.284038 0.871443 0.5
244 1 0.359555 0.819306 0.5
168 1 0.40674 0.828787 0.5
79 1 0.492516 0.861991 0.5
301 1 0.617968 0.832881 0.5
106 1 0.661802 0.85185 0.5
160 1 0.713625 0.855923 0.5
23 1 0.767267 0.863969 0.5
111 1 0.0742069 0.881225 0.5
149 1 0.13314 0.893076 0.5
265 1 0.21439 0.937986 0.5
378 1 0.337871 0.863029 0.5
27 1 0.387861 0.872478 0.5
240 1 0.446353 0.888792 0.5
176 1 0.540328 0.873239 0.5
253 1 0.588036 0.879746 0.5
276 1 0.600915 0.937453 0.5
78 1 0.633769 0.891655 0.5
21 1 0.68302 0.901653 0.5
348 1 0.816718 0.870541 0.5
200 1 0.874686 0.882082 0.5
269 1 0.929113 0.883887 0.5
159 1 0.976391 0.897037 0.5
41 1 0.0262168 0.890573 0.5
157 1 0.182788 0.903018 0.5
310 1 0.255685 0.914046 0.5
3 1 0.311177 0.91269 0.5
398 1 0.495815 0.91169 0.5
250 1 0.556453 0.919355 0.5
204 1 0.649158 0.938122 0.5
341 1 0.697743 0.945899 0.5
56 1 0.733469 0.904268 0.5
77 1 0.786788 0.91175 0.5
252 1 0.834721 0.918402 0.5
94 1 0.906851 0.929364 0.5
130 1 0.947296 0.954996 0.5
87 1 0.0969791 0.926003 0.5
255 1 0.151328 0.945216 0.5
232 1 0.184356 0.986086 0.5
186 1 0.23834 0.981911 0.5
14 1 0.279708 0.955582 0.5
16 1 0.358992 0.917578 0.5
24 1 0.415686 0.927846 0.5
214 1 0.463654 0.946258 0.5
260 1 0.512856 0.958938 0.5
187 1 0.558808 0.97001 0.5
220 1 0.606603 0.984758 0.5
202 1 0.655746 0.98678 0.5
370 1 0.748002 0.950239 0.5
320 1 0.796286 0.960359 0.5
59 1 0.84762 0.968131 0.5
389 1 0.985627 0.986124 0.5
175 1 0.0469564 0.936919 0.5
325 1 0.101585 0.975436 0.5
368 1 0.140092 0.00887789 0.5
199 1 0.330312 0.963082 0.5
246 1 0.379871 0.960775 0.5
261 1 0.705731 0.994194 0.5
38 1 0.894835 0.978175 0.5
172 1 0.998668 0.937906 0.5
