ITEM: TIMESTEP
100000
ITEM: NUMBER OF ATOMS
400
ITEM: BOX BOUNDS pp pp pp
0.0000000000000000e+00 2.0519567041703080e+01
0.0000000000000000e+00 2.0519567041703080e+01
-5.1298917604257699e-01 5.1298917604257699e-01
ITEM: ATOMS id type xs ys zs
221 1 0.445048 0.415251 0.5
105 1 0.413788 0.101726 0.5
238 1 0.0279322 0.200305 0.5
296 1 0.449759 0.278692 0.5
214 1 0.303056 0.0239381 0.5
152 1 0.461992 0.115351 0.5
66 1 0.0173364 0.107969 0.5
188 1 0.142469 0.467575 0.5
395 1 0.224244 0.496122 0.5
139 1 0.36018 0.0222669 0.5
207 1 0.355435 0.473125 0.5
391 1 0.266197 0.422319 0.5
335 1 0.459052 0.369767 0.5
363 1 0.0559943 0.253434 0.5
19 1 0.131906 0.0523443 0.5
4 1 0.0132728 0.46042 0.5
141 1 0.188448 0.0960329 0.5
293 1 0.231626 0.0692455 0.5
30 1 0.328315 0.0644209 0.5
116 1 0.0162542 0.155484 0.5
339 1 0.0607998 0.128113 0.5
248 1 0.0915794 0.0768301 0.5
76 1 0.188115 0.0453803 0.5
50 1 0.279653 0.0683348 0.5
375 1 0.308846 0.111678 0.5
22 1 0.418913 0.0274706 0.5
332 1 0.449731 0.0651962 0.5
14 1 0.0403189 0.0638983 0.5
182 1 0.493052 0.40271 0.5
112 1 0.134148 0.0996368 0.5
282 1 0.323962 0.158644 0.5
390 1 0.356021 0.105755 0.5
197 1 0.192212 0.45873 0.5
60 1 0.0672442 0.175819 0.5
246 1 0.116393 0.14461 0.5
329 1 0.113876 0.193762 0.5
47 1 0.166384 0.153036 0.5
120 1 0.214378 0.135704 0.5
160 1 0.371651 0.153953 0.5
62 1 0.383581 0.0645109 0.5
297 1 0.308436 0.494768 0.5
349 1 0.0799993 0.29402 0.5
254 1 0.258154 0.117229 0.5
394 1 0.406424 0.191164 0.5
264 1 0.421071 0.146536 0.5
167 1 0.427734 0.333314 0.5
89 1 0.10401 0.252802 0.5
192 1 0.15226 0.249138 0.5
275 1 0.181233 0.209173 0.5
97 1 0.252767 0.164038 0.5
269 1 0.384693 0.235539 0.5
313 1 0.345556 0.288546 0.5
230 1 0.0352299 0.354899 0.5
249 1 0.122121 0.423025 0.5
227 1 0.214564 0.250112 0.5
342 1 0.343216 0.199727 0.5
150 1 0.323709 0.247748 0.5
64 1 0.482148 0.241828 0.5
166 1 0.432409 0.235734 0.5
301 1 0.0692097 0.444124 0.5
267 1 0.0881538 0.342062 0.5
130 1 0.0726477 0.391309 0.5
253 1 0.130079 0.289402 0.5
180 1 0.23384 0.206465 0.5
385 1 0.291742 0.199668 0.5
81 1 0.327825 0.332094 0.5
46 1 0.0516142 0.488147 0.5
203 1 0.131005 0.376546 0.5
372 1 0.273031 0.245176 0.5
93 1 0.247339 0.283609 0.5
48 1 0.296799 0.294777 0.5
185 1 0.394197 0.289924 0.5
252 1 0.0220829 0.0199902 0.5
183 1 0.167676 0.414877 0.5
121 1 0.159931 0.337611 0.5
58 1 0.29635 0.383892 0.5
131 1 0.348267 0.37601 0.5
134 1 0.376307 0.334987 0.5
11 1 0.249504 0.019905 0.5
90 1 0.219714 0.417165 0.5
321 1 0.100121 0.484643 0.5
344 1 0.198535 0.374062 0.5
172 1 0.190304 0.295961 0.5
239 1 0.280805 0.340269 0.5
357 1 0.399524 0.380399 0.5
23 1 0.0730034 0.0262834 0.5
31 1 0.473355 0.320447 0.5
284 1 0.248517 0.376749 0.5
103 1 0.223993 0.333824 0.5
236 1 0.265559 0.469968 0.5
45 1 0.376036 0.424806 0.5
377 1 0.308468 0.44159 0.5
345 1 0.494478 0.0200311 0.5
2 1 0.0309639 0.411549 0.5
292 1 0.0324536 0.306388 0.5
113 1 0.413736 0.451992 0.5
398 1 0.455715 0.19051 0.5
343 1 0.112145 0.00174879 0.5
366 1 0.487739 0.453776 0.5
314 1 0.159823 0.00909128 0.5
198 1 0.455491 0.487435 0.5
240 1 0.495003 0.147111 0.5
159 1 0.409141 0.892356 0.5
55 1 0.419392 0.558178 0.5
270 1 0.229227 0.544704 0.5
234 1 0.04436 0.790792 0.5
380 1 0.409859 0.505403 0.5
374 1 0.119484 0.954575 0.5
168 1 0.376267 0.945564 0.5
171 1 0.0233969 0.83912 0.5
57 1 0.0193646 0.610972 0.5
13 1 0.426029 0.937362 0.5
256 1 0.453937 0.896717 0.5
15 1 0.00663764 0.923781 0.5
193 1 0.175911 0.513404 0.5
132 1 0.129372 0.525793 0.5
6 1 0.255327 0.610838 0.5
83 1 0.279764 0.564405 0.5
376 1 0.323315 0.544268 0.5
87 1 0.267889 0.518034 0.5
179 1 0.401563 0.984045 0.5
37 1 0.0602339 0.969721 0.5
347 1 0.210928 0.931799 0.5
21 1 0.109075 0.571786 0.5
41 1 0.160336 0.584818 0.5
212 1 0.211033 0.589237 0.5
106 1 0.371772 0.538335 0.5
201 1 0.462449 0.587545 0.5
243 1 0.458492 0.684729 0.5
109 1 0.243885 0.966639 0.5
86 1 0.0334514 0.562396 0.5
12 1 0.0738949 0.610419 0.5
125 1 0.365606 0.584101 0.5
338 1 0.47056 0.540963 0.5
95 1 0.16726 0.958664 0.5
101 1 0.0905257 0.656308 0.5
289 1 0.137076 0.909848 0.5
154 1 0.227357 0.653448 0.5
311 1 0.344244 0.635453 0.5
140 1 0.413075 0.607062 0.5
137 1 0.41591 0.656538 0.5
328 1 0.421869 0.717429 0.5
68 1 0.0747925 0.925905 0.5
307 1 0.0327879 0.659006 0.5
51 1 0.132187 0.628694 0.5
331 1 0.185449 0.629477 0.5
305 1 0.318027 0.592156 0.5
129 1 0.261253 0.690802 0.5
312 1 0.381423 0.689753 0.5
24 1 0.398604 0.756681 0.5
74 1 0.449251 0.761558 0.5
291 1 0.338653 0.97983 0.5
330 1 0.480589 0.643725 0.5
99 1 0.293302 0.645893 0.5
279 1 0.302208 0.74197 0.5
17 1 0.314157 0.689123 0.5
259 1 0.348978 0.761591 0.5
157 1 0.486614 0.728375 0.5
216 1 0.107665 0.728726 0.5
251 1 0.13493 0.686981 0.5
98 1 0.185669 0.68124 0.5
290 1 0.367447 0.804831 0.5
69 1 0.415592 0.808455 0.5
228 1 0.0667131 0.700222 0.5
189 1 0.0582334 0.743638 0.5
245 1 0.158105 0.727776 0.5
219 1 0.333842 0.839783 0.5
5 1 0.291805 0.798268 0.5
54 1 0.379159 0.852919 0.5
147 1 0.4659 0.81518 0.5
32 1 0.289922 0.979187 0.5
346 1 0.144699 0.775829 0.5
218 1 0.222946 0.714834 0.5
333 1 0.251533 0.754324 0.5
1 1 0.241749 0.799451 0.5
215 1 0.434873 0.850339 0.5
9 1 0.0767269 0.531039 0.5
163 1 0.480869 0.949733 0.5
370 1 0.0706058 0.833687 0.5
126 1 0.0922212 0.781663 0.5
96 1 0.189626 0.764194 0.5
322 1 0.167509 0.820572 0.5
162 1 0.299937 0.889055 0.5
170 1 0.151506 0.866111 0.5
392 1 0.0388691 0.883291 0.5
59 1 0.119082 0.822695 0.5
277 1 0.211611 0.842447 0.5
28 1 0.318485 0.932665 0.5
82 1 0.353634 0.898374 0.5
191 1 0.0116085 0.706857 0.5
110 1 0.101127 0.872292 0.5
387 1 0.192495 0.890533 0.5
29 1 0.242568 0.881452 0.5
71 1 0.272898 0.839728 0.5
65 1 0.268407 0.925631 0.5
209 1 0.452926 0.992516 0.5
389 1 0.484895 0.858057 0.5
369 1 0.0130726 0.753431 0.5
397 1 0.00742799 0.520885 0.5
206 1 0.204985 0.994563 0.5
158 1 0.496481 0.773246 0.5
276 1 0.00257017 0.975149 0.5
309 1 0.735231 0.463113 0.5
283 1 0.602735 0.0470014 0.5
316 1 0.646986 0.0270539 0.5
233 1 0.66452 0.116816 0.5
258 1 0.549873 0.000878646 0.5
383 1 0.800226 0.0794398 0.5
42 1 0.845757 0.0962009 0.5
40 1 0.536829 0.24574 0.5
7 1 0.506687 0.284056 0.5
33 1 0.498388 0.0724484 0.5
18 1 0.710313 0.10785 0.5
164 1 0.87679 0.141682 0.5
244 1 0.933265 0.0578297 0.5
145 1 0.797097 0.45005 0.5
117 1 0.506607 0.20241 0.5
208 1 0.581229 0.0885761 0.5
373 1 0.816769 0.132496 0.5
368 1 0.912121 0.110732 0.5
88 1 0.962077 0.126943 0.5
43 1 0.842062 0.0439804 0.5
63 1 0.615286 0.117418 0.5
287 1 0.689589 0.16512 0.5
91 1 0.767186 0.121649 0.5
358 1 0.791763 0.173621 0.5
146 1 0.981982 0.231181 0.5
38 1 0.791393 0.0310219 0.5
155 1 0.542997 0.159995 0.5
351 1 0.539758 0.107257 0.5
340 1 0.641879 0.170555 0.5
300 1 0.642072 0.0759838 0.5
213 1 0.738332 0.173726 0.5
379 1 0.918685 0.162572 0.5
306 1 0.938861 0.212445 0.5
367 1 0.970158 0.175164 0.5
195 1 0.591377 0.160449 0.5
149 1 0.717383 0.220781 0.5
211 1 0.829287 0.204356 0.5
49 1 0.896592 0.242265 0.5
175 1 0.946822 0.26569 0.5
337 1 0.887071 0.0722133 0.5
104 1 0.640102 0.477966 0.5
178 1 0.61137 0.211606 0.5
304 1 0.668867 0.208243 0.5
341 1 0.698174 0.264982 0.5
224 1 0.781413 0.218816 0.5
94 1 0.87877 0.190386 0.5
399 1 0.541338 0.463687 0.5
199 1 0.565283 0.202024 0.5
52 1 0.751293 0.260112 0.5
16 1 0.80538 0.261304 0.5
70 1 0.853957 0.263725 0.5
144 1 0.945827 0.316051 0.5
153 1 0.981973 0.0721874 0.5
303 1 0.552886 0.298512 0.5
308 1 0.586001 0.254266 0.5
235 1 0.644401 0.254419 0.5
161 1 0.657864 0.301533 0.5
295 1 0.775381 0.305525 0.5
118 1 0.824118 0.305082 0.5
196 1 0.902752 0.34536 0.5
286 1 0.555331 0.0489741 0.5
75 1 0.872089 0.489738 0.5
229 1 0.574804 0.338069 0.5
360 1 0.625663 0.343824 0.5
53 1 0.715977 0.309426 0.5
223 1 0.951416 0.368253 0.5
210 1 0.970384 0.0196257 0.5
336 1 0.508519 0.357933 0.5
388 1 0.604303 0.301789 0.5
285 1 0.68425 0.345591 0.5
324 1 0.884873 0.301193 0.5
84 1 0.853058 0.34585 0.5
173 1 0.913175 0.398242 0.5
361 1 0.750703 0.0763555 0.5
232 1 0.542027 0.391744 0.5
273 1 0.66582 0.393992 0.5
138 1 0.711122 0.392335 0.5
317 1 0.749846 0.342948 0.5
396 1 0.866935 0.399788 0.5
79 1 0.892745 0.445267 0.5
148 1 0.947856 0.430499 0.5
257 1 0.589291 0.48054 0.5
393 1 0.587422 0.382367 0.5
77 1 0.757631 0.410041 0.5
204 1 0.804417 0.346153 0.5
61 1 0.989363 0.335976 0.5
348 1 0.577265 0.430313 0.5
34 1 0.675846 0.441616 0.5
220 1 0.820538 0.39524 0.5
265 1 0.840898 0.449476 0.5
250 1 0.743303 0.0243561 0.5
143 1 0.989067 0.287554 0.5
35 1 0.900761 0.020525 0.5
142 1 0.626314 0.432126 0.5
350 1 0.692631 0.487489 0.5
352 1 0.693283 0.0628142 0.5
354 1 0.821159 0.491359 0.5
67 1 0.984488 0.4023 0.5
39 1 0.918397 0.495332 0.5
205 1 0.967812 0.486785 0.5
334 1 0.843965 0.535401 0.5
78 1 0.964234 0.615858 0.5
73 1 0.65099 0.573035 0.5
200 1 0.575943 0.563854 0.5
271 1 0.6085 0.597553 0.5
325 1 0.720424 0.532723 0.5
108 1 0.988797 0.571611 0.5
127 1 0.90115 0.539088 0.5
226 1 0.618016 0.537521 0.5
384 1 0.645753 0.640803 0.5
119 1 0.599958 0.647058 0.5
272 1 0.621436 0.691354 0.5
3 1 0.672524 0.683383 0.5
107 1 0.747321 0.57276 0.5
261 1 0.563861 0.613869 0.5
123 1 0.881653 0.587865 0.5
202 1 0.66322 0.528594 0.5
371 1 0.712359 0.72639 0.5
25 1 0.651902 0.729079 0.5
194 1 0.609452 0.992924 0.5
100 1 0.744487 0.634817 0.5
318 1 0.817614 0.581919 0.5
151 1 0.560247 0.743969 0.5
298 1 0.575733 0.688147 0.5
327 1 0.697398 0.770778 0.5
124 1 0.696628 0.581979 0.5
381 1 0.697169 0.633063 0.5
115 1 0.844824 0.617619 0.5
128 1 0.871228 0.661679 0.5
378 1 0.516786 0.604418 0.5
133 1 0.653639 0.784263 0.5
85 1 0.609504 0.755114 0.5
111 1 0.726707 0.679806 0.5
225 1 0.777174 0.672006 0.5
187 1 0.789173 0.621159 0.5
262 1 0.904801 0.628162 0.5
176 1 0.558173 0.79213 0.5
364 1 0.604202 0.802737 0.5
114 1 0.784776 0.856529 0.5
281 1 0.765106 0.797868 0.5
319 1 0.7617 0.718479 0.5
136 1 0.864909 0.715015 0.5
174 1 0.593349 0.858132 0.5
263 1 0.688204 0.823391 0.5
27 1 0.844186 0.856292 0.5
186 1 0.805899 0.760481 0.5
359 1 0.806703 0.711672 0.5
247 1 0.987121 0.666023 0.5
92 1 0.506193 0.9063 0.5
241 1 0.635136 0.886737 0.5
356 1 0.737577 0.846507 0.5
400 1 0.823435 0.660131 0.5
72 1 0.931047 0.669817 0.5
56 1 0.541481 0.85661 0.5
362 1 0.526329 0.655163 0.5
184 1 0.81369 0.814008 0.5
280 1 0.916317 0.788891 0.5
36 1 0.909613 0.739311 0.5
217 1 0.506799 0.503359 0.5
382 1 0.569763 0.902555 0.5
355 1 0.683533 0.870664 0.5
310 1 0.69933 0.983988 0.5
44 1 0.820722 0.899065 0.5
266 1 0.878948 0.890898 0.5
181 1 0.953011 0.83083 0.5
288 1 0.861146 0.765747 0.5
102 1 0.957525 0.766812 0.5
165 1 0.987142 0.802771 0.5
80 1 0.614374 0.930429 0.5
302 1 0.638553 0.836736 0.5
274 1 0.729948 0.900385 0.5
10 1 0.881622 0.824735 0.5
222 1 0.776065 0.90175 0.5
8 1 0.913605 0.935289 0.5
26 1 0.920464 0.864466 0.5
386 1 0.992048 0.874948 0.5
260 1 0.574943 0.954373 0.5
320 1 0.80886 0.944873 0.5
156 1 0.951415 0.899625 0.5
135 1 0.929195 0.581793 0.5
278 1 0.526328 0.954757 0.5
365 1 0.93882 0.985137 0.5
242 1 0.683983 0.924533 0.5
323 1 0.963774 0.707579 0.5
231 1 0.826442 0.993268 0.5
294 1 0.855925 0.937416 0.5
122 1 0.961934 0.944296 0.5
190 1 0.94881 0.536635 0.5
299 1 0.790271 0.542224 0.5
177 1 0.521126 0.552525 0.5
353 1 0.736452 0.946994 0.5
255 1 0.517608 0.815188 0.5
315 1 0.874712 0.982549 0.5
326 1 0.773073 0.985415 0.5
268 1 0.557181 0.512463 0.5
169 1 0.651362 0.958329 0.5
20 1 0.525387 0.704303 0.5
237 1 0.76367 0.500908 0.5
