ITEM: TIMESTEP
100000
ITEM: NUMBER OF ATOMS
400
ITEM: BOX BOUNDS pp pp pp
0.0000000000000000e+00 1.9069251784911849e+01
0.0000000000000000e+00 1.9069251784911849e+01
-4.7673129462279618e-01 4.7673129462279618e-01
ITEM: ATOMS id type xs ys zs
4 1 0.0407022 0.000441188 0.5
42 1 0.0925519 0.00244817 0.5
23 1 0.14433 0.00897485 0.5
5 1 0.195459 0.0109963 0.5
46 1 0.248135 0.0215514 0.5
27 1 0.297512 0.0235386 0.5
7 1 0.357673 0.0358027 0.5
11 1 0.438711 0.988716 0.5
12 1 0.488051 0.998332 0.5
13 1 0.540301 0.994042 0.5
15 1 0.595833 0.00977196 0.5
394 1 0.647507 0.0220189 0.5
396 1 0.698354 0.0282637 0.5
17 1 0.751751 0.0298699 0.5
398 1 0.804446 0.0381823 0.5
38 1 0.852842 0.0287097 0.5
21 1 0.016138 0.0512587 0.5
81 1 0.068152 0.0498607 0.5
24 1 0.11662 0.0554987 0.5
45 1 0.168668 0.0569491 0.5
25 1 0.218621 0.0639023 0.5
30 1 0.410067 0.0310811 0.5
33 1 0.460342 0.0389568 0.5
72 1 0.5154 0.0407212 0.5
51 1 0.567161 0.0567746 0.5
34 1 0.619059 0.0626347 0.5
56 1 0.671257 0.0705185 0.5
35 1 0.721126 0.0750689 0.5
40 1 0.904044 0.0322961 0.5
41 1 0.95654 0.0408082 0.5
80 1 0.0317689 0.0996428 0.5
101 1 0.0808964 0.0999136 0.5
47 1 0.2745 0.0732155 0.5
86 1 0.327132 0.0760753 0.5
50 1 0.382447 0.082305 0.5
32 1 0.435916 0.0831385 0.5
49 1 0.484889 0.0843586 0.5
71 1 0.536352 0.0997712 0.5
52 1 0.58681 0.110325 0.5
57 1 0.771982 0.0795566 0.5
397 1 0.824617 0.0846756 0.5
79 1 0.877793 0.0781919 0.5
1 1 0.929083 0.0837282 0.5
60 1 0.981367 0.0901739 0.5
43 1 0.138309 0.105088 0.5
65 1 0.191197 0.110339 0.5
66 1 0.246943 0.115143 0.5
106 1 0.297155 0.126205 0.5
8 1 0.347274 0.126198 0.5
128 1 0.405005 0.128606 0.5
36 1 0.637336 0.111168 0.5
55 1 0.69181 0.117257 0.5
76 1 0.746367 0.119474 0.5
37 1 0.795496 0.129835 0.5
18 1 0.846537 0.129501 0.5
98 1 0.896875 0.125881 0.5
20 1 0.949335 0.138773 0.5
100 1 0.00125506 0.141397 0.5
120 1 0.0577179 0.144379 0.5
61 1 0.108351 0.147381 0.5
67 1 0.158168 0.150798 0.5
62 1 0.214854 0.154476 0.5
64 1 0.268522 0.168806 0.5
28 1 0.45857 0.131387 0.5
31 1 0.508254 0.142994 0.5
70 1 0.561617 0.154505 0.5
53 1 0.610343 0.15652 0.5
73 1 0.659907 0.161053 0.5
54 1 0.713825 0.16961 0.5
75 1 0.764424 0.17204 0.5
58 1 0.817159 0.178986 0.5
180 1 0.868473 0.177829 0.5
102 1 0.0325311 0.194096 0.5
121 1 0.0807347 0.190459 0.5
44 1 0.132101 0.192646 0.5
89 1 0.324763 0.178096 0.5
90 1 0.373795 0.17327 0.5
88 1 0.426477 0.180906 0.5
68 1 0.481313 0.187469 0.5
48 1 0.529724 0.1953 0.5
113 1 0.582099 0.197974 0.5
93 1 0.631668 0.208884 0.5
74 1 0.685868 0.209969 0.5
59 1 0.921663 0.180359 0.5
39 1 0.983006 0.186169 0.5
140 1 0.0550584 0.238645 0.5
82 1 0.18467 0.198934 0.5
85 1 0.232396 0.208645 0.5
87 1 0.288186 0.217564 0.5
109 1 0.348435 0.223352 0.5
148 1 0.395964 0.224239 0.5
69 1 0.448055 0.231118 0.5
92 1 0.499271 0.236108 0.5
94 1 0.547986 0.243405 0.5
111 1 0.599235 0.246457 0.5
114 1 0.740009 0.216735 0.5
117 1 0.788638 0.223172 0.5
78 1 0.845328 0.222173 0.5
158 1 0.897766 0.22214 0.5
139 1 0.955099 0.226061 0.5
160 1 0.00493327 0.235504 0.5
63 1 0.107098 0.237775 0.5
103 1 0.154222 0.237068 0.5
122 1 0.208757 0.251276 0.5
108 1 0.260211 0.260467 0.5
107 1 0.312113 0.26902 0.5
145 1 0.361526 0.273843 0.5
91 1 0.416648 0.281264 0.5
95 1 0.658365 0.253653 0.5
138 1 0.712362 0.263485 0.5
77 1 0.767442 0.26535 0.5
99 1 0.81839 0.267353 0.5
119 1 0.873724 0.271512 0.5
141 1 0.0314161 0.2861 0.5
84 1 0.0828398 0.284439 0.5
83 1 0.131047 0.294502 0.5
105 1 0.1798 0.29799 0.5
126 1 0.230759 0.303926 0.5
165 1 0.281536 0.309127 0.5
130 1 0.468062 0.275234 0.5
112 1 0.516414 0.284865 0.5
110 1 0.57176 0.290729 0.5
132 1 0.629102 0.30078 0.5
116 1 0.679469 0.304765 0.5
96 1 0.737242 0.30522 0.5
156 1 0.790181 0.311125 0.5
118 1 0.929959 0.272097 0.5
104 1 0.979153 0.279521 0.5
161 1 0.0520585 0.338702 0.5
142 1 0.101142 0.334778 0.5
201 1 0.153591 0.341943 0.5
147 1 0.3321 0.31692 0.5
127 1 0.381972 0.318979 0.5
129 1 0.434796 0.329557 0.5
149 1 0.489487 0.327529 0.5
151 1 0.541874 0.331704 0.5
134 1 0.650126 0.348157 0.5
115 1 0.706566 0.354771 0.5
196 1 0.8416 0.311278 0.5
97 1 0.893048 0.318945 0.5
178 1 0.946044 0.322619 0.5
177 1 0.998341 0.332878 0.5
218 1 0.0216584 0.380491 0.5
125 1 0.204314 0.347132 0.5
146 1 0.258484 0.353876 0.5
186 1 0.308071 0.363572 0.5
170 1 0.357944 0.365179 0.5
150 1 0.407676 0.373583 0.5
172 1 0.462396 0.372914 0.5
191 1 0.51395 0.374002 0.5
131 1 0.597755 0.350097 0.5
137 1 0.760504 0.353794 0.5
135 1 0.810332 0.359357 0.5
136 1 0.86212 0.363596 0.5
159 1 0.914793 0.365815 0.5
179 1 0.965721 0.37132 0.5
181 1 0.0682342 0.390666 0.5
162 1 0.1185 0.386458 0.5
163 1 0.171793 0.389873 0.5
144 1 0.223452 0.399807 0.5
164 1 0.274372 0.400403 0.5
166 1 0.333555 0.412065 0.5
169 1 0.383461 0.419607 0.5
153 1 0.5656 0.389684 0.5
152 1 0.621487 0.39654 0.5
133 1 0.673614 0.396727 0.5
154 1 0.72576 0.402697 0.5
155 1 0.782057 0.402729 0.5
216 1 0.834577 0.405498 0.5
157 1 0.885123 0.416593 0.5
195 1 0.936264 0.411806 0.5
197 1 0.98691 0.424027 0.5
203 1 0.0391621 0.428415 0.5
123 1 0.0922288 0.436579 0.5
183 1 0.144531 0.43802 0.5
184 1 0.1951 0.446219 0.5
205 1 0.246348 0.445397 0.5
171 1 0.434848 0.416215 0.5
189 1 0.491357 0.417862 0.5
190 1 0.540695 0.432828 0.5
192 1 0.592134 0.441817 0.5
174 1 0.643387 0.44234 0.5
253 1 0.697112 0.443414 0.5
124 1 0.00606557 0.475105 0.5
143 1 0.0560849 0.476254 0.5
182 1 0.109442 0.484781 0.5
185 1 0.297312 0.454047 0.5
167 1 0.349016 0.459867 0.5
168 1 0.401938 0.465964 0.5
211 1 0.458572 0.463156 0.5
213 1 0.507557 0.482477 0.5
193 1 0.746791 0.446903 0.5
194 1 0.801633 0.453954 0.5
215 1 0.854039 0.455885 0.5
176 1 0.903954 0.462796 0.5
217 1 0.95706 0.466691 0.5
204 1 0.16211 0.489073 0.5
225 1 0.212673 0.495528 0.5
206 1 0.263984 0.493354 0.5
187 1 0.313474 0.502761 0.5
188 1 0.367481 0.506684 0.5
232 1 0.423173 0.51328 0.5
252 1 0.558795 0.478932 0.5
254 1 0.614661 0.486259 0.5
234 1 0.667568 0.486403 0.5
175 1 0.718018 0.491668 0.5
278 1 0.769252 0.496828 0.5
238 1 0.821221 0.497768 0.5
239 1 0.871511 0.506517 0.5
198 1 0.927172 0.510216 0.5
220 1 0.979443 0.517094 0.5
202 1 0.0299836 0.521723 0.5
221 1 0.0832407 0.526053 0.5
223 1 0.132063 0.532989 0.5
245 1 0.18589 0.538101 0.5
226 1 0.234446 0.541016 0.5
207 1 0.286412 0.54752 0.5
229 1 0.337523 0.551049 0.5
233 1 0.473955 0.520109 0.5
235 1 0.532066 0.528357 0.5
173 1 0.58589 0.52688 0.5
257 1 0.637904 0.532645 0.5
214 1 0.688585 0.532786 0.5
301 1 0.74114 0.537265 0.5
258 1 0.796489 0.542579 0.5
261 1 0.843431 0.556992 0.5
241 1 0.052555 0.572696 0.5
224 1 0.103463 0.577619 0.5
243 1 0.154444 0.58338 0.5
208 1 0.387895 0.551073 0.5
251 1 0.443999 0.558263 0.5
271 1 0.498889 0.569064 0.5
272 1 0.557202 0.572392 0.5
273 1 0.611377 0.576191 0.5
255 1 0.662585 0.581829 0.5
277 1 0.89823 0.554327 0.5
200 1 0.945549 0.561599 0.5
199 1 0.000123006 0.561898 0.5
222 1 0.0194992 0.620009 0.5
281 1 0.0708839 0.619893 0.5
246 1 0.205766 0.590349 0.5
227 1 0.258093 0.58937 0.5
249 1 0.309863 0.59502 0.5
210 1 0.362544 0.598594 0.5
231 1 0.415914 0.602311 0.5
269 1 0.472144 0.612167 0.5
256 1 0.713537 0.588776 0.5
280 1 0.764818 0.582513 0.5
236 1 0.818723 0.602696 0.5
298 1 0.870837 0.600197 0.5
240 1 0.970906 0.609514 0.5
282 1 0.122301 0.628247 0.5
244 1 0.170307 0.639064 0.5
265 1 0.230048 0.637512 0.5
228 1 0.279013 0.637916 0.5
248 1 0.336117 0.63856 0.5
209 1 0.390108 0.647575 0.5
293 1 0.522927 0.612204 0.5
295 1 0.577882 0.619637 0.5
274 1 0.629213 0.62205 0.5
237 1 0.680518 0.630147 0.5
297 1 0.751164 0.630204 0.5
275 1 0.756825 0.683468 0.5
318 1 0.847814 0.651265 0.5
219 1 0.921918 0.604462 0.5
259 1 0.0378687 0.667233 0.5
283 1 0.0910792 0.668179 0.5
262 1 0.140896 0.684182 0.5
264 1 0.192312 0.683315 0.5
266 1 0.254261 0.684304 0.5
288 1 0.302002 0.694446 0.5
212 1 0.441291 0.654192 0.5
230 1 0.490193 0.658714 0.5
291 1 0.544281 0.659809 0.5
312 1 0.598983 0.66529 0.5
314 1 0.648408 0.674332 0.5
276 1 0.723587 0.725561 0.5
336 1 0.734824 0.783208 0.5
300 1 0.898086 0.69634 0.5
279 1 0.933072 0.654871 0.5
319 1 0.983734 0.661741 0.5
303 1 0.00503031 0.712561 0.5
324 1 0.0620423 0.720048 0.5
263 1 0.112604 0.726317 0.5
267 1 0.35438 0.690763 0.5
308 1 0.408003 0.696492 0.5
250 1 0.457677 0.700447 0.5
268 1 0.507389 0.707077 0.5
292 1 0.560517 0.707125 0.5
370 1 0.615375 0.71496 0.5
335 1 0.798317 0.653418 0.5
323 1 0.953747 0.701685 0.5
286 1 0.165657 0.730172 0.5
306 1 0.213229 0.737583 0.5
307 1 0.267226 0.738127 0.5
247 1 0.320547 0.740257 0.5
328 1 0.372766 0.748154 0.5
270 1 0.426295 0.754944 0.5
294 1 0.702905 0.677196 0.5
296 1 0.686145 0.774362 0.5
354 1 0.770409 0.741149 0.5
321 1 0.821741 0.696306 0.5
302 1 0.869653 0.743393 0.5
260 1 0.927148 0.744094 0.5
284 1 0.0270226 0.758664 0.5
305 1 0.0773967 0.768676 0.5
304 1 0.137013 0.772964 0.5
327 1 0.188362 0.780924 0.5
290 1 0.23911 0.784142 0.5
289 1 0.290498 0.787219 0.5
287 1 0.342047 0.788369 0.5
329 1 0.475024 0.749953 0.5
350 1 0.52642 0.756578 0.5
352 1 0.578583 0.753728 0.5
334 1 0.633063 0.761216 0.5
315 1 0.672927 0.723106 0.5
338 1 0.790269 0.787845 0.5
299 1 0.819315 0.74482 0.5
358 1 0.841114 0.793404 0.5
242 1 0.976205 0.754414 0.5
322 1 1.00187 0.803498 0.5
285 1 0.0514144 0.814425 0.5
345 1 0.101155 0.811387 0.5
326 1 0.154354 0.822176 0.5
311 1 0.209248 0.828269 0.5
388 1 0.392463 0.801851 0.5
332 1 0.445939 0.801868 0.5
331 1 0.497729 0.797628 0.5
351 1 0.550579 0.807855 0.5
313 1 0.603061 0.802287 0.5
317 1 0.710706 0.827506 0.5
359 1 0.892527 0.794323 0.5
340 1 0.947101 0.798527 0.5
325 1 0.0222023 0.854787 0.5
344 1 0.0755379 0.858025 0.5
346 1 0.26301 0.829429 0.5
10 1 0.315287 0.832859 0.5
310 1 0.36527 0.844676 0.5
29 1 0.413465 0.851093 0.5
330 1 0.465242 0.856118 0.5
374 1 0.573508 0.853768 0.5
353 1 0.651892 0.811762 0.5
339 1 0.759309 0.840117 0.5
320 1 0.812109 0.832638 0.5
379 1 0.862845 0.837405 0.5
360 1 0.914725 0.845943 0.5
341 1 0.965049 0.850466 0.5
363 1 0.126661 0.866044 0.5
365 1 0.177795 0.869303 0.5
366 1 0.23408 0.877606 0.5
348 1 0.28566 0.877384 0.5
309 1 0.335853 0.886553 0.5
369 1 0.388052 0.89588 0.5
371 1 0.521935 0.853848 0.5
375 1 0.626389 0.858557 0.5
356 1 0.681072 0.8758 0.5
316 1 0.734501 0.882183 0.5
337 1 0.786981 0.884649 0.5
376 1 0.837871 0.882141 0.5
380 1 0.890342 0.889591 0.5
361 1 0.9449 0.899941 0.5
343 1 0.0500998 0.906586 0.5
362 1 0.103043 0.910547 0.5
383 1 0.15334 0.915442 0.5
6 1 0.203416 0.920366 0.5
367 1 0.260921 0.926176 0.5
347 1 0.310679 0.932608 0.5
389 1 0.438945 0.898604 0.5
392 1 0.490251 0.896331 0.5
372 1 0.540174 0.903812 0.5
373 1 0.599821 0.908222 0.5
377 1 0.651009 0.915941 0.5
357 1 0.707185 0.923647 0.5
395 1 0.757996 0.929609 0.5
342 1 0.997571 0.901891 0.5
3 1 0.0231755 0.947324 0.5
364 1 0.0710153 0.953497 0.5
387 1 0.229375 0.972048 0.5
368 1 0.360762 0.941812 0.5
9 1 0.414227 0.942533 0.5
391 1 0.467284 0.943069 0.5
390 1 0.516129 0.949079 0.5
393 1 0.572187 0.952106 0.5
355 1 0.807684 0.930741 0.5
378 1 0.858675 0.93386 0.5
381 1 0.911303 0.939046 0.5
382 1 0.973898 0.948463 0.5
384 1 0.119412 0.958551 0.5
385 1 0.171202 0.96387 0.5
349 1 0.281208 0.97521 0.5
386 1 0.335057 0.984579 0.5
26 1 0.388465 0.986426 0.5
333 1 0.629285 0.966575 0.5
14 1 0.677492 0.973405 0.5
16 1 0.72878 0.977399 0.5
399 1 0.782284 0.977301 0.5
19 1 0.83515 0.981278 0.5
400 1 0.884811 0.984608 0.5
2 1 0.940933 0.992266 0.5
22 1 0.992523 0.00747743 0.5
