LAMMPS (15 Sep 2022)
OMP_NUM_THREADS environment is not set. Defaulting to 1 thread. (src/comm.cpp:98)
  using 1 OpenMP thread(s) per MPI task
# 2d WCA system, random initial configuration

#variable density equal 0.5
variable initial_temperature equal 3.0
variable final_temperature equal 0.1
variable dt equal 0.01
variable tau equal 100*${dt}
variable tau equal 100*0.01
variable thermo_time equal 50000*${dt}
variable thermo_time equal 50000*0.01
variable equil_steps equal 50000
variable run_steps equal 100000

units           lj
atom_style      atomic
dimension       2

lattice         sq ${density}
lattice         sq 0.95
Lattice spacing in x,y,z = 1.0259784 1.0259784 1.0259784
region          box block 0 20 0 20 -0.5 0.5
# number of atom types
create_box      1 box
Created orthogonal box = (0 0 -0.51298918) to (20.519567 20.519567 0.51298918)
  2 by 2 by 1 MPI processor grid
create_atoms    1 box
Created 400 atoms
  using lattice units in orthogonal box = (0 0 -0.51298918) to (20.519567 20.519567 0.51298918)
  create_atoms CPU = 0.000 seconds
mass 1 1.0

velocity all create ${initial_temperature} 12345
velocity all create 3 12345

pair_style      lj/cut 1.0
#type_1 type_2 epsilon sigma cutoff
pair_coeff      1 1 10.0 0.89089871814 1.0
pair_modify shift yes

timestep ${dt}
timestep 0.01
thermo ${thermo_time}
thermo 500

fix 1 all nvt temp ${initial_temperature} ${initial_temperature} ${tau}
fix 1 all nvt temp 3 ${initial_temperature} ${tau}
fix 1 all nvt temp 3 3 ${tau}
fix 1 all nvt temp 3 3 1
run ${equil_steps}
run 50000
Generated 0 of 0 mixed pair_coeff terms from geometric mixing rule
Neighbor list info ...
  update: every = 1 steps, delay = 0 steps, check = yes
  max neighbors/atom: 2000, page size: 100000
  master list distance cutoff = 1.3
  ghost atom cutoff = 1.3
  binsize = 0.65, bins = 32 32 2
  1 neighbor lists, perpetual/occasional/extra = 1 0 0
  (1) pair lj/cut, perpetual
      attributes: half, newton on
      pair build: half/bin/atomonly/newton
      stencil: half/bin/2d
      bin: standard
Per MPI rank memory allocation (min/avg/max) = 3.049 | 3.049 | 3.049 Mbytes
   Step          Temp          E_pair         E_mol          TotEng         Press     
         0   3              0              0              2.9925         2.842875     
       500   3.210955       1.2161958      0              4.4191233      23.927429    
      1000   3.1318181      1.3479733      0              4.4719619      25.80657     
      1500   3.1704746      1.2482575      0              4.410806       24.790929    
      2000   3.0799226      1.3548177      0              4.4270405      25.091267    
      2500   2.8745505      1.1755014      0              4.0428655      23.579569    
      3000   3.1147808      1.1292314      0              4.2362252      23.211567    
      3500   2.7961317      1.2809303      0              4.0700716      24.734364    
      4000   3.0239157      1.2125806      0              4.2289365      23.926539    
      4500   3.1158716      1.0232628      0              4.1313447      21.805467    
      5000   2.8394898      1.1698076      0              4.0021986      22.983614    
      5500   2.9604844      1.1189086      0              4.0719918      22.890933    
      6000   3.1647738      1.3312366      0              4.4880985      25.771602    
      6500   3.0390497      1.3176563      0              4.3491083      25.487671    
      7000   3.1033978      1.1137601      0              4.2093993      22.899996    
      7500   2.9266446      1.3094817      0              4.2288097      25.552549    
      8000   2.9845417      1.195625       0              4.1727054      24.045766    
      8500   3.053238       1.216632       0              4.2622369      24.706317    
      9000   2.8568944      1.3822014      0              4.2319536      25.831214    
      9500   3.0050439      1.4086996      0              4.4062309      26.646618    
     10000   3.1043008      1.241075       0              4.337615       24.71118     
     10500   3.2122739      1.2503892      0              4.4546325      25.137763    
     11000   3.5064431      1.3086008      0              4.8062778      25.505079    
     11500   2.7992352      1.5605942      0              4.3528313      27.698188    
     12000   3.1990774      1.1298458      0              4.3209256      23.094564    
     12500   3.1523732      1.2484415      0              4.3929338      24.368729    
     13000   3.1116241      1.3452096      0              4.4490546      25.770433    
     13500   3.0737554      1.2129585      0              4.2790296      23.758147    
     14000   3.0375629      1.2212743      0              4.2512433      24.450506    
     14500   3.0063839      1.2731802      0              4.2720481      25.105272    
     15000   2.9356447      1.2752015      0              4.2035071      25.23202     
     15500   3.0037332      1.154865       0              4.1510889      23.246792    
     16000   2.9542021      1.2672304      0              4.2140471      24.21567     
     16500   2.9680725      1.2654359      0              4.2260882      24.554213    
     17000   2.9299893      1.4129208      0              4.3355852      26.495391    
     17500   2.5201646      1.092284       0              3.6061482      22.2753      
     18000   2.9047585      1.2134516      0              4.1109482      24.209851    
     18500   2.9427619      1.3110688      0              4.2464738      25.018441    
     19000   3.2298022      1.2872776      0              4.5090053      25.31219     
     19500   3.2085478      1.2437342      0              4.4442606      24.571418    
     20000   3.2051984      1.2987846      0              4.49597        25.886136    
     20500   3.0620578      1.3020993      0              4.356502       25.701603    
     21000   2.997962       1.5163455      0              4.5068127      27.548633    
     21500   3.4904949      1.2603571      0              4.7421258      24.969594    
     22000   3.2424544      1.2915855      0              4.5259338      25.637532    
     22500   3.199521       1.2346172      0              4.4261393      24.727872    
     23000   3.3036526      1.335767       0              4.6311605      25.234883    
     23500   2.7319867      1.5077479      0              4.2329047      27.61546     
     24000   3.1055033      1.2431592      0              4.3408988      24.334675    
     24500   3.2517147      1.3140949      0              4.5576803      25.578362    
     25000   3.4079864      1.2990318      0              4.6984982      25.797804    
     25500   2.833421       1.2634406      0              4.0897781      24.8388      
     26000   2.9332093      1.2985784      0              4.2244547      24.96444     
     26500   3.0783692      1.0757348      0              4.146408       22.614323    
     27000   3.1935771      1.1227683      0              4.3083615      23.034729    
     27500   3.063203       1.3424499      0              4.397995       25.829422    
     28000   3.2396219      1.3151275      0              4.5466503      25.781209    
     28500   3.2546721      1.2730155      0              4.5195509      25.338679    
     29000   3.0259747      1.3940496      0              4.4124594      26.506788    
     29500   3.1225762      1.1908598      0              4.3056295      23.779647    
     30000   2.9856174      1.353013       0              4.3311664      25.469777    
     30500   2.8339965      1.2258012      0              4.0527127      24.366176    
     31000   2.8857233      1.2031541      0              4.0816632      23.695733    
     31500   2.8728603      1.2785044      0              4.1441825      24.438681    
     32000   2.9189978      1.1487026      0              4.0604029      23.381679    
     32500   2.8365851      1.238395       0              4.0678887      24.741487    
     33000   3.0660035      1.0205973      0              4.0789358      21.728465    
     33500   2.9262939      1.2475476      0              4.1665257      24.97184     
     34000   3.0986757      1.0804214      0              4.1713505      22.051662    
     34500   3.0505756      1.1959361      0              4.2388853      23.877049    
     35000   3.1040769      1.2134869      0              4.3098036      24.079314    
     35500   3.1622843      1.190097       0              4.3444756      24.229189    
     36000   2.8651067      1.3244019      0              4.1823458      25.666667    
     36500   2.9739821      1.3115808      0              4.2781279      25.715681    
     37000   2.8814791      1.3012828      0              4.1755583      25.108897    
     37500   2.9638229      1.3212935      0              4.2777068      25.42366     
     38000   3.1161041      1.2465482      0              4.3548621      24.620311    
     38500   3.0991422      1.4089289      0              4.5003232      26.734866    
     39000   3.2655404      1.2740236      0              4.5314002      25.227105    
     39500   3.119183       1.2311242      0              4.3425092      24.366101    
     40000   3.1684859      1.1784763      0              4.3390409      24.509595    
     40500   3.2088082      1.0477278      0              4.248514       22.114134    
     41000   3.0188125      1.1449463      0              4.1562119      23.038044    
     41500   2.9072907      1.3098466      0              4.2098691      25.155336    
     42000   3.2602117      1.3088153      0              4.5608764      25.907721    
     42500   3.2472308      1.3284814      0              4.5675941      26.421692    
     43000   3.3462533      1.1973003      0              4.535188       24.894884    
     43500   3.2588763      1.1472362      0              4.3979653      23.142904    
     44000   2.9568569      1.3686136      0              4.3180783      25.561128    
     44500   3.0860577      1.2043967      0              4.2827393      24.019708    
     45000   3.144468       1.2398327      0              4.3764395      24.855909    
     45500   3.1012441      1.228734       0              4.3222251      24.219007    
     46000   2.7606004      1.3647727      0              4.1184716      25.491149    
     46500   2.9532779      1.305072       0              4.2509667      24.994207    
     47000   2.9302365      1.2827352      0              4.2056461      24.808778    
     47500   2.8818125      1.3723301      0              4.2469381      26.385434    
     48000   2.8072398      1.4393941      0              4.2396158      26.678272    
     48500   2.913797       1.2456493      0              4.1521618      24.139753    
     49000   3.026084       1.1959858      0              4.2145046      24.320454    
     49500   3.1172755      1.2174776      0              4.32696        24.663466    
     50000   2.9604236      1.1915996      0              4.1446221      23.190977    
Loop time of 2.50627 on 4 procs for 50000 steps with 400 atoms

Performance: 17236780.730 tau/day, 19949.978 timesteps/s, 7.980 Matom-step/s
88.0% CPU use with 4 MPI tasks x 1 OpenMP threads

MPI task timing breakdown:
Section |  min time  |  avg time  |  max time  |%varavg| %total
---------------------------------------------------------------
Pair    | 0.15588    | 0.17896    | 0.23142    |   7.3 |  7.14
Neigh   | 0.23358    | 0.28211    | 0.36916    |   9.8 | 11.26
Comm    | 1.4372     | 1.5511     | 1.6655     |   6.6 | 61.89
Output  | 0.0021602  | 0.0037838  | 0.0078606  |   3.8 |  0.15
Modify  | 0.26798    | 0.29077    | 0.31525    |   4.0 | 11.60
Other   |            | 0.1996     |            |       |  7.96

Nlocal:            100 ave         104 max          96 min
Histogram: 1 0 1 0 0 0 0 1 0 1
Nghost:          58.25 ave          62 max          53 min
Histogram: 1 0 0 0 1 0 0 0 1 1
Neighs:         251.25 ave         256 max         244 min
Histogram: 1 0 0 0 0 1 0 0 1 1

Total # of neighbors = 1005
Ave neighs/atom = 2.5125
Neighbor list builds = 16879
Dangerous builds = 0

unfix 1
dump           1 all atom ${run_steps} 2dWCA_T${final_temperature}_d${density}_N${run_steps}.lammpstrj
dump           1 all atom 100000 2dWCA_T${final_temperature}_d${density}_N${run_steps}.lammpstrj
dump           1 all atom 100000 2dWCA_T0.1_d${density}_N${run_steps}.lammpstrj
dump           1 all atom 100000 2dWCA_T0.1_d0.95_N${run_steps}.lammpstrj
dump           1 all atom 100000 2dWCA_T0.1_d0.95_N100000.lammpstrj
dump           2 all dcd ${thermo_time} 2dWCA_T${final_temperature}_d${density}_N${run_steps}.dcd
dump           2 all dcd 500 2dWCA_T${final_temperature}_d${density}_N${run_steps}.dcd
dump           2 all dcd 500 2dWCA_T0.1_d${density}_N${run_steps}.dcd
dump           2 all dcd 500 2dWCA_T0.1_d0.95_N${run_steps}.dcd
dump           2 all dcd 500 2dWCA_T0.1_d0.95_N100000.dcd
fix 1 all nvt temp ${initial_temperature} ${final_temperature} ${tau}
fix 1 all nvt temp 3 ${final_temperature} ${tau}
fix 1 all nvt temp 3 0.1 ${tau}
fix 1 all nvt temp 3 0.1 1

run ${run_steps}
run 100000
Generated 0 of 0 mixed pair_coeff terms from geometric mixing rule
Per MPI rank memory allocation (min/avg/max) = 3.076 | 3.076 | 3.076 Mbytes
   Step          Temp          E_pair         E_mol          TotEng         Press     
     50000   2.9604236      1.1915996      0              4.1446221      23.190977    
     50500   2.9239424      1.2515672      0              4.1681998      24.275155    
     51000   2.9233255      1.1195502      0              4.0355674      22.803739    
     51500   2.728304       1.1788319      0              3.9003152      23.567055    
     52000   2.8025146      1.227623       0              4.0231313      23.665541    
     52500   2.6182847      1.2726785      0              3.8844175      24.321974    
     53000   2.907183       1.2574303      0              4.1573454      24.508128    
     53500   2.860164       1.0865363      0              3.9395498      22.367903    
     54000   2.8795572      1.0730515      0              3.9454098      22.800488    
     54500   2.8885144      1.1609633      0              4.0422564      22.817641    
     55000   2.8859805      1.1337262      0              4.0124917      22.657151    
     55500   2.9076187      1.1019839      0              4.0023335      22.551044    
     56000   2.8798158      1.1209624      0              3.9935787      23.105778    
     56500   2.8466416      1.1614022      0              4.0009272      23.322405    
     57000   2.8069415      1.1622592      0              3.9621834      22.920817    
     57500   2.6344269      1.2219593      0              3.8498001      23.767174    
     58000   2.7963929      0.99348486     0              3.7828868      21.085485    
     58500   2.5258753      0.89995807     0              3.4195187      19.689061    
     59000   2.7449244      1.017262       0              3.7553241      21.410136    
     59500   2.6473152      1.1447203      0              3.7854172      23.375875    
     60000   2.5837897      1.2443016      0              3.8216318      23.85911     
     60500   2.6179049      1.1901067      0              3.8014668      23.114956    
     61000   2.6766193      0.93713687     0              3.6070646      20.932808    
     61500   2.4655225      1.2701494      0              3.7295082      25.067263    
     62000   2.5707763      1.0318749      0              3.5962243      21.365546    
     62500   2.5163216      1.1284838      0              3.6385146      22.793086    
     63000   2.5072978      0.94869639     0              3.4497259      20.558685    
     63500   2.4666904      1.1505745      0              3.6110981      23.047409    
     64000   2.5274533      1.0842637      0              3.6053983      22.213781    
     64500   2.442122       1.0407893      0              3.4768061      21.250264    
     65000   2.4591936      0.95319947     0              3.4062451      20.397746    
     65500   2.5456391      1.0555308      0              3.5948058      21.245425    
     66000   2.5481965      1.1921713      0              3.7339973      22.736373    
     66500   2.6730819      0.96680827     0              3.6332075      21.042704    
     67000   2.6033716      1.048156       0              3.6450192      21.36007     
     67500   2.4917952      1.0918353      0              3.577401       22.320599    
     68000   2.4965209      0.90711676     0              3.3973964      19.710799    
     68500   2.5657889      0.86761546     0              3.4269899      18.930627    
     69000   2.3450012      1.0452438      0              3.3843825      21.17278     
     69500   2.3350969      0.91473876     0              3.2439979      20.0359      
     70000   2.3718249      1.0198851      0              3.3857804      21.164037    
     70500   2.6318005      0.93707558     0              3.5622965      19.958566    
     71000   2.4075729      0.97581459     0              3.3773686      20.269629    
     71500   2.3623388      1.0169694      0              3.3734023      20.726463    
     72000   2.2509928      1.1080945      0              3.3534598      21.973472    
     72500   2.5357412      0.97795817     0              3.50736        20.422544    
     73000   2.4511972      0.93951829     0              3.3845875      20.365813    
     73500   2.4109842      0.94763677     0              3.3525935      19.895185    
     74000   2.4851741      0.85183973     0              3.3308009      18.639653    
     74500   2.2391021      0.88569919     0              3.1192035      19.320574    
     75000   2.1948988      0.96667371     0              3.1560853      19.838698    
     75500   2.0970862      0.93587389     0              3.0277173      19.733408    
     76000   2.269804       0.86842238     0              3.1325518      19.315025    
     76500   2.3577061      0.8077381      0              3.1595499      18.014136    
     77000   2.2916745      0.97567393     0              3.2616193      20.547212    
     77500   2.3188158      0.92071793     0              3.2337367      19.377289    
     78000   2.2657742      0.77378963     0              3.0338994      17.066915    
     78500   2.1081941      0.9748158      0              3.0777394      20.959808    
     79000   2.1412038      0.96653685     0              3.1023876      20.124608    
     79500   2.2693237      0.98688514     0              3.2505355      20.402308    
     80000   2.1212942      0.93976038     0              3.0557513      19.953121    
     80500   2.1375422      0.84546916     0              2.9776675      18.707241    
     81000   2.0664908      0.85280217     0              2.9141267      18.350261    
     81500   2.022107       0.80748331     0              2.824535       17.94131     
     82000   1.9531345      0.94028385     0              2.8885355      19.443723    
     82500   2.1404052      0.78537363     0              2.9204278      17.572309    
     83000   2.1355684      0.80965717     0              2.9398866      18.189319    
     83500   2.0627827      0.89121343     0              2.9488392      19.102257    
     84000   1.8731814      0.68833668     0              2.5568352      15.542587    
     84500   1.7899994      0.85445407     0              2.6399785      18.707926    
     85000   1.9810067      0.69945175     0              2.6755059      16.24155     
     85500   2.0520737      0.71815454     0              2.765098       16.615918    
     86000   2.0291266      0.80668644     0              2.8307402      18.14074     
     86500   2.0452824      0.59978245     0              2.6399516      15.036731    
     87000   1.872854       0.85588009     0              2.7240519      18.350237    
     87500   1.8648611      0.83042381     0              2.6906228      18.387074    
     88000   1.8747114      0.79511212     0              2.6651367      17.970212    
     88500   1.9695073      0.68735904     0              2.6519426      16.111033    
     89000   1.9464342      0.7581568      0              2.6997249      17.575778    
     89500   1.8797737      0.81228351     0              2.6873578      17.352395    
     90000   1.9155411      0.69676384     0              2.607516       16.444136    
     90500   1.8462651      0.70776361     0              2.5494131      16.335694    
     91000   1.7839271      0.79025532     0              2.5697226      17.596848    
     91500   1.8220084      0.70073898     0              2.5181923      16.10664     
     92000   1.8990966      0.73679896     0              2.6311478      16.850686    
     92500   1.8491496      0.66496079     0              2.5094875      15.359548    
     93000   1.8779546      0.684403       0              2.5576627      16.037968    
     93500   1.8263268      0.66265088     0              2.4844119      15.460197    
     94000   1.8681286      0.63250495     0              2.4959632      15.520297    
     94500   1.6455713      0.56597173     0              2.2074292      13.828999    
     95000   1.668484       0.59951571     0              2.2638285      14.443669    
     95500   1.5694731      0.54077549     0              2.1063249      13.567719    
     96000   1.5940204      0.61639566     0              2.206431       14.868778    
     96500   1.6465479      0.58180314     0              2.2242346      13.742048    
     97000   1.6634425      0.64811111     0              2.307395       15.163437    
     97500   1.715038       0.68276596     0              2.3935164      16.360363    
     98000   1.6419856      0.62813589     0              2.2660166      15.136173    
     98500   1.6327848      0.6196002      0              2.2483031      14.818432    
     99000   1.6008141      0.61084461     0              2.2076567      14.831926    
     99500   1.5139697      0.65982241     0              2.1700072      15.892992    
    100000   1.6125032      0.5286671      0              2.137139       13.235315    
    100500   1.5381705      0.54745555     0              2.0817806      13.428788    
    101000   1.4513758      0.59308432     0              2.0408317      14.138822    
    101500   1.3994376      0.52573436     0              1.9216733      12.783916    
    102000   1.4680061      0.55567795     0              2.020014       13.52468     
    102500   1.422258       0.68383587     0              2.1025382      15.912625    
    103000   1.5206846      0.52390939     0              2.0407922      13.346711    
    103500   1.5881492      0.56148845     0              2.1456672      14.034313    
    104000   1.4721092      0.5283716      0              1.9968005      13.282965    
    104500   1.4785182      0.54148271     0              2.0163046      13.889804    
    105000   1.3625492      0.5480553      0              1.9071982      13.355586    
    105500   1.35586        0.43502809     0              1.7874985      11.691492    
    106000   1.3386531      0.47416186     0              1.8094683      12.442263    
    106500   1.4131134      0.43409379     0              1.8436744      11.455419    
    107000   1.308064       0.46177788     0              1.7665718      11.639304    
    107500   1.233021       0.43087315     0              1.6608116      11.639131    
    108000   1.2561146      0.44668996     0              1.6996643      11.991389    
    108500   1.3369269      0.40720564     0              1.7407902      11.059706    
    109000   1.2861745      0.44227648     0              1.7252355      11.9204      
    109500   1.2880386      0.45649884     0              1.7413174      12.14646     
    110000   1.3038477      0.42203329     0              1.7226214      11.561911    
    110500   1.344571       0.47469577     0              1.8159054      12.016004    
    111000   1.3542571      0.45758452     0              1.808456       12.13769     
    111500   1.2864049      0.46868246     0              1.7518714      12.333787    
    112000   1.2166084      0.4734674      0              1.6870342      12.243754    
    112500   1.2341687      0.41342209     0              1.6445054      11.415053    
    113000   1.2092496      0.48338454     0              1.689611       12.647517    
    113500   1.2672772      0.40711468     0              1.6712237      11.403533    
    114000   1.2069672      0.40822625     0              1.612176       10.830555    
    114500   1.1326499      0.37262249     0              1.5024408      10.284681    
    115000   1.1622855      0.35840276     0              1.5177825      10.329654    
    115500   1.0947311      0.38523925     0              1.4772335      10.9784      
    116000   1.0904307      0.40140766     0              1.4891123      10.763775    
    116500   1.0213316      0.29863861     0              1.3174169      8.9084752    
    117000   1.0125633      0.37716792     0              1.3871998      10.7098      
    117500   1.0646032      0.32691515     0              1.3888569      9.4429763    
    118000   0.970105       0.34576387     0              1.3134436      9.8714603    
    118500   1.0247907      0.34518104     0              1.3674098      9.7474102    
    119000   1.0809482      0.34653979     0              1.4247856      9.7818613    
    119500   1.0657994      0.3823686      0              1.4455035      10.357601    
    120000   0.99826045     0.37564499     0              1.3714098      10.285492    
    120500   1.0084209      0.32751475     0              1.3334146      9.4511578    
    121000   0.97743244     0.33379972     0              1.3087886      9.4950759    
    121500   0.9451637      0.36652106     0              1.3093218      10.033268    
    122000   0.96541432     0.35387084     0              1.3168716      9.9446083    
    122500   0.92878459     0.34984409     0              1.2763067      9.7853753    
    123000   0.92538994     0.28074518     0              1.2038216      8.6794459    
    123500   0.89792155     0.2765357      0              1.1722124      8.3187641    
    124000   0.88838991     0.26728431     0              1.1534532      8.4895783    
    124500   0.78111976     0.26493674     0              1.0441037      7.8263894    
    125000   0.78233316     0.23179996     0              1.0121773      7.2071823    
    125500   0.76325422     0.2514354      0              1.0127815      7.8320009    
    126000   0.78133812     0.21411231     0              0.99349708     7.0047041    
    126500   0.82531493     0.20159009     0              1.0248417      6.8810312    
    127000   0.76871921     0.23975158     0              1.006549       7.651797     
    127500   0.76335164     0.2358607      0              0.99730396     7.3492826    
    128000   0.72118306     0.2134611      0              0.9328412      6.8739659    
    128500   0.67674349     0.21825561     0              0.89330724     6.8778498    
    129000   0.67571196     0.16987455     0              0.84389722     6.1735887    
    129500   0.64081128     0.22758787     0              0.86679712     7.2909814    
    130000   0.70052415     0.17694992     0              0.87572276     6.2144674    
    130500   0.66000704     0.20556524     0              0.86392226     6.6339419    
    131000   0.66913202     0.18404083     0              0.85150001     6.4421124    
    131500   0.6155334      0.20375369     0              0.81774826     6.6218015    
    132000   0.63446094     0.1524314      0              0.78530619     5.7121688    
    132500   0.59518928     0.17035732     0              0.76405862     5.9535374    
    133000   0.58228548     0.16117602     0              0.74200579     5.7807721    
    133500   0.54780308     0.15743348     0              0.70386705     5.8475937    
    134000   0.56932346     0.15316454     0              0.72106469     5.568858     
    134500   0.55558409     0.16828937     0              0.7224845      5.8833384    
    135000   0.54097456     0.17947021     0              0.71909233     6.4250836    
    135500   0.50951197     0.15243359     0              0.66067177     5.537597     
    136000   0.49641381     0.12923434     0              0.62440712     5.0116601    
    136500   0.45335455     0.12582175     0              0.57804291     4.8042367    
    137000   0.47691945     0.12787891     0              0.60360605     4.8090555    
    137500   0.46271973     0.10226262     0              0.56382554     4.2000076    
    138000   0.42022804     0.12372972     0              0.54290718     4.7608848    
    138500   0.41685689     0.11549125     0              0.531306       4.681034     
    139000   0.42432106     0.084894184    0              0.50815445     3.6384233    
    139500   0.39508413     0.085561037    0              0.47965746     3.6305953    
    140000   0.3691348      0.098715998    0              0.46692796     4.0376014    
    140500   0.3612225      0.077401369    0              0.43772081     3.47554      
    141000   0.35413837     0.065454152    0              0.41870717     3.0072167    
    141500   0.33348161     0.075637128    0              0.40828503     3.4987703    
    142000   0.32327447     0.075010705    0              0.39747699     3.5118659    
    142500   0.3043221      0.062473015    0              0.36603431     2.8471927    
    143000   0.29986052     0.067756776    0              0.36686765     2.9906895    
    143500   0.27700954     0.063948229    0              0.34026525     2.9901704    
    144000   0.26611421     0.060576672    0              0.3260256      2.9334348    
    144500   0.24464125     0.050704475    0              0.29473412     2.5531857    
    145000   0.23347259     0.054105369    0              0.28699428     2.7718866    
    145500   0.21382881     0.059300856    0              0.27259509     2.9304603    
    146000   0.21909493     0.035096899    0              0.25364409     2.0113487    
    146500   0.21217207     0.035048883    0              0.24669052     2.079545     
    147000   0.19655467     0.036994586    0              0.23305787     2.0751967    
    147500   0.1762016      0.033707551    0              0.20946865     1.9543152    
    148000   0.15016551     0.022516704    0              0.1723068      1.4185865    
    148500   0.14228193     0.017239106    0              0.15916533     1.2376965    
    149000   0.13218865     0.018444034    0              0.15030221     1.3166469    
    149500   0.12379326     0.01406481     0              0.13754858     1.0654897    
    150000   0.10058022     0.010026225    0              0.11035499     0.85692521   
Loop time of 4.67041 on 4 procs for 100000 steps with 400 atoms

Performance: 18499436.243 tau/day, 21411.385 timesteps/s, 8.565 Matom-step/s
87.8% CPU use with 4 MPI tasks x 1 OpenMP threads

MPI task timing breakdown:
Section |  min time  |  avg time  |  max time  |%varavg| %total
---------------------------------------------------------------
Pair    | 0.28081    | 0.31951    | 0.35971    |   5.2 |  6.84
Neigh   | 0.3352     | 0.35062    | 0.37753    |   2.9 |  7.51
Comm    | 2.8578     | 2.8815     | 2.9132     |   1.2 | 61.70
Output  | 0.074192   | 0.078572   | 0.091579   |   2.7 |  1.68
Modify  | 0.51889    | 0.59681    | 0.64601    |   6.9 | 12.78
Other   |            | 0.4434     |            |       |  9.49

Nlocal:            100 ave         103 max          97 min
Histogram: 1 0 0 1 0 0 1 0 0 1
Nghost:          56.25 ave          59 max          53 min
Histogram: 1 1 0 0 0 0 0 0 0 2
Neighs:          279.5 ave         294 max         268 min
Histogram: 1 0 1 0 0 1 0 0 0 1

Total # of neighbors = 1118
Ave neighs/atom = 2.795
Neighbor list builds = 24105
Dangerous builds = 0
Total wall time: 0:00:07
