LAMMPS (15 Sep 2022)
OMP_NUM_THREADS environment is not set. Defaulting to 1 thread. (src/comm.cpp:98)
  using 1 OpenMP thread(s) per MPI task
# 2d WCA system, random initial configuration

#variable density equal 0.5
variable initial_temperature equal 3.0
variable final_temperature equal 0.1
variable dt equal 0.01
variable tau equal 100*${dt}
variable tau equal 100*0.01
variable thermo_time equal 50000*${dt}
variable thermo_time equal 50000*0.01
variable equil_steps equal 50000
variable run_steps equal 100000

units           lj
atom_style      atomic
dimension       2

lattice         sq ${density}
lattice         sq 1.0
Lattice spacing in x,y,z = 1 1 1
region          box block 0 20 0 20 -0.5 0.5
# number of atom types
create_box      1 box
Created orthogonal box = (0 0 -0.5) to (20 20 0.5)
  1 by 1 by 1 MPI processor grid
create_atoms    1 box
Created 400 atoms
  using lattice units in orthogonal box = (0 0 -0.5) to (20 20 0.5)
  create_atoms CPU = 0.000 seconds
mass 1 1.0

velocity all create ${initial_temperature} 12345
velocity all create 3 12345

pair_style      lj/cut 1.0
#type_1 type_2 epsilon sigma cutoff
pair_coeff      1 1 10.0 0.89089871814 1.0
pair_modify shift yes

timestep ${dt}
timestep 0.01
thermo ${thermo_time}
thermo 500

fix 1 all nvt temp ${initial_temperature} ${initial_temperature} ${tau}
fix 1 all nvt temp 3 ${initial_temperature} ${tau}
fix 1 all nvt temp 3 3 ${tau}
fix 1 all nvt temp 3 3 1
run ${equil_steps}
run 50000
Generated 0 of 0 mixed pair_coeff terms from geometric mixing rule
Neighbor list info ...
  update: every = 1 steps, delay = 0 steps, check = yes
  max neighbors/atom: 2000, page size: 100000
  master list distance cutoff = 1.3
  ghost atom cutoff = 1.3
  binsize = 0.65, bins = 31 31 2
  1 neighbor lists, perpetual/occasional/extra = 1 0 0
  (1) pair lj/cut, perpetual
      attributes: half, newton on
      pair build: half/bin/atomonly/newton
      stencil: half/bin/2d
      bin: standard
Per MPI rank memory allocation (min/avg/max) = 3.055 | 3.055 | 3.055 Mbytes
   Step          Temp          E_pair         E_mol          TotEng         Press     
         0   3              0              0              2.9925         2.9925       
       500   3.2273594      1.6203164      0              4.8396074      32.210094    
      1000   3.0917559      1.7585791      0              4.8426056      33.82522     
      1500   3.0860321      1.7315698      0              4.8098868      33.234382    
      2000   3.4547013      1.3258813      0              4.7719459      28.385855    
      2500   2.9983323      1.5650419      0              4.5558783      31.515517    
      3000   3.1071058      1.6412432      0              4.7405813      32.863774    
      3500   3.0331505      1.5581246      0              4.5836922      30.620377    
      4000   2.7465192      1.3973388      0              4.1369917      28.562758    
      4500   3.0347454      1.5579643      0              4.5851229      31.50843     
      5000   2.9798325      1.5886528      0              4.5610357      31.428801    
      5500   3.0348303      1.6034554      0              4.6306986      32.505407    
      6000   3.0775606      1.5720819      0              4.6419487      30.928113    
      6500   2.8238729      1.7022195      0              4.5190327      32.624683    
      7000   3.0846693      1.6918015      0              4.7687591      32.405586    
      7500   3.2567077      1.4405034      0              4.6890693      29.742187    
      8000   3.1830484      1.4754144      0              4.6505052      30.184708    
      8500   2.8846         1.4688344      0              4.3462229      29.685759    
      9000   2.9668998      1.4878986      0              4.4473812      30.587651    
      9500   3.1238999      1.3300935      0              4.4461837      28.4784      
     10000   3.0413873      1.6658466      0              4.6996304      32.17254     
     10500   3.2254203      1.6349362      0              4.852293       32.620259    
     11000   2.8879308      1.4543754      0              4.3350864      29.712939    
     11500   2.8728832      1.6343431      0              4.5000442      32.51509     
     12000   2.9200019      1.4982586      0              4.4109604      30.140829    
     12500   2.9165132      1.6727204      0              4.5819423      32.796932    
     13000   3.1972301      1.70627        0              4.895507       33.35546     
     13500   3.1478535      1.6575229      0              4.7975068      32.472289    
     14000   2.8535858      1.698011       0              4.5444628      32.758936    
     14500   3.2683798      1.5250003      0              4.7852092      30.520784    
     15000   2.7502294      1.6057933      0              4.3491472      31.648988    
     15500   3.1294907      1.4903598      0              4.6120267      30.529777    
     16000   3.1010849      1.8143456      0              4.9076778      33.817008    
     16500   3.0376647      1.4390166      0              4.4690872      29.670188    
     17000   2.9534002      1.5307845      0              4.4768011      30.548752    
     17500   3.024023       1.4671305      0              4.4835935      30.018409    
     18000   3.0273686      1.6517658      0              4.671566       32.430986    
     18500   2.8122039      1.5515316      0              4.356705       31.31069     
     19000   2.8475619      1.7767627      0              4.6172057      33.83663     
     19500   2.9162996      1.5672165      0              4.4762253      31.198357    
     20000   3.1605614      1.5014825      0              4.6541424      30.928501    
     20500   3.055594       1.611257       0              4.659212       31.957505    
     21000   3.5210623      1.400189       0              4.9124486      29.506617    
     21500   3.2411156      1.5931667      0              4.8261795      31.719441    
     22000   3.2566009      1.4342935      0              4.6827529      30.444664    
     22500   2.9888873      1.4710407      0              4.4524558      30.463593    
     23000   3.0813813      1.402876       0              4.4765539      29.429403    
     23500   3.0824096      1.4763956      0              4.5510992      30.510922    
     24000   2.9419121      1.5905969      0              4.5251542      31.18507     
     24500   2.8512695      1.643697       0              4.4878383      31.620434    
     25000   2.9008333      1.6062426      0              4.4998238      32.215604    
     25500   2.9608723      1.6173683      0              4.5708384      31.308322    
     26000   2.9787688      1.5502073      0              4.5215292      31.299592    
     26500   3.1657787      1.383399       0              4.5412633      28.648681    
     27000   3.0271896      1.7272685      0              4.7468902      33.205707    
     27500   3.1349388      1.8005025      0              4.9276039      34.134898    
     28000   3.020126       1.5391376      0              4.5517133      30.984773    
     28500   2.9812888      1.6370063      0              4.6108419      32.094367    
     29000   3.2320546      1.6833931      0              4.9073676      32.762907    
     29500   3.2097548      1.6875543      0              4.8892847      33.007392    
     30000   3.1683437      1.7015888      0              4.8620117      33.101508    
     30500   3.2183268      1.7293353      0              4.9396163      33.525965    
     31000   3.1375797      1.7864881      0              4.9162238      33.755686    
     31500   3.1216793      1.6944752      0              4.8083503      32.536606    
     32000   3.1042103      1.6223343      0              4.7187841      31.933361    
     32500   3.1126665      1.7562521      0              4.8611369      33.866361    
     33000   3.0475268      1.6777657      0              4.7176737      32.974619    
     33500   3.1954048      1.7171046      0              4.9045209      32.736744    
     34000   2.8454793      1.6545756      0              4.4929411      32.046304    
     34500   2.9292551      1.6602191      0              4.5821511      32.167696    
     35000   3.0608289      1.4947056      0              4.5478824      30.223988    
     35500   3.1539663      1.5503416      0              4.696423       31.601007    
     36000   3.2527628      1.6987426      0              4.9433735      32.967523    
     36500   2.9544066      1.6010786      0              4.5480991      31.795319    
     37000   2.7969828      1.7440196      0              4.5340099      33.361453    
     37500   2.9082472      1.5472942      0              4.4482708      30.91805     
     38000   3.0648845      1.5682779      0              4.6255001      31.453219    
     38500   3.2543531      1.8155079      0              5.0617251      34.105036    
     39000   3.0032084      1.8165722      0              4.8122726      34.457007    
     39500   2.7593482      1.7346357      0              4.4870855      33.45655     
     40000   2.9130229      1.8800911      0              4.7858314      35.804796    
     40500   2.8221321      1.6449341      0              4.4600108      31.844269    
     41000   3.143609       1.4186169      0              4.5543669      29.35831     
     41500   2.8908563      1.7421035      0              4.6257327      32.63039     
     42000   2.6599906      1.5535316      0              4.2068722      31.166911    
     42500   2.7786229      1.6310997      0              4.402776       31.559631    
     43000   2.9598066      1.4852559      0              4.4376629      29.577839    
     43500   2.9455666      1.6314222      0              4.5696249      30.864446    
     44000   3.2521225      1.5265419      0              4.7705341      30.909665    
     44500   3.1324051      1.7187057      0              4.8432798      33.528902    
     45000   2.7964047      1.6672716      0              4.4566853      31.874063    
     45500   3.0313961      1.6473694      0              4.671187       32.479542    
     46000   3.2312815      1.7797705      0              5.0029738      34.245759    
     46500   3.2572485      1.6093755      0              4.8584809      31.847267    
     47000   3.2738464      1.4965647      0              4.7622265      30.999656    
     47500   3.364308       1.7249911      0              5.0808883      33.670648    
     48000   3.0485704      1.6740545      0              4.7150035      31.69651     
     48500   3.2338927      1.3053661      0              4.5311741      27.909062    
     49000   3.1818405      1.4646848      0              4.6385706      29.84474     
     49500   3.2996444      1.4953957      0              4.7867911      30.937944    
     50000   3.1444896      1.7294347      0              4.8660631      33.464448    
Loop time of 2.03382 on 1 procs for 50000 steps with 400 atoms

Performance: 21240831.286 tau/day, 24584.295 timesteps/s, 9.834 Matom-step/s
98.9% CPU use with 1 MPI tasks x 1 OpenMP threads

MPI task timing breakdown:
Section |  min time  |  avg time  |  max time  |%varavg| %total
---------------------------------------------------------------
Pair    | 0.67918    | 0.67918    | 0.67918    |   0.0 | 33.39
Neigh   | 0.89823    | 0.89823    | 0.89823    |   0.0 | 44.16
Comm    | 0.094056   | 0.094056   | 0.094056   |   0.0 |  4.62
Output  | 0.0050198  | 0.0050198  | 0.0050198  |   0.0 |  0.25
Modify  | 0.2586     | 0.2586     | 0.2586     |   0.0 | 12.72
Other   |            | 0.09872    |            |       |  4.85

Nlocal:            400 ave         400 max         400 min
Histogram: 1 0 0 0 0 0 0 0 0 0
Nghost:            105 ave         105 max         105 min
Histogram: 1 0 0 0 0 0 0 0 0 0
Neighs:           1050 ave        1050 max        1050 min
Histogram: 1 0 0 0 0 0 0 0 0 0

Total # of neighbors = 1050
Ave neighs/atom = 2.625
Neighbor list builds = 16855
Dangerous builds = 0

unfix 1
dump           1 all atom ${run_steps} 2dWCA_T${final_temperature}_d${density}_N${run_steps}.lammpstrj
dump           1 all atom 100000 2dWCA_T${final_temperature}_d${density}_N${run_steps}.lammpstrj
dump           1 all atom 100000 2dWCA_T0.1_d${density}_N${run_steps}.lammpstrj
dump           1 all atom 100000 2dWCA_T0.1_d1.0_N${run_steps}.lammpstrj
dump           1 all atom 100000 2dWCA_T0.1_d1.0_N100000.lammpstrj
dump           2 all dcd ${thermo_time} 2dWCA_T${final_temperature}_d${density}_N${run_steps}.dcd
dump           2 all dcd 500 2dWCA_T${final_temperature}_d${density}_N${run_steps}.dcd
dump           2 all dcd 500 2dWCA_T0.1_d${density}_N${run_steps}.dcd
dump           2 all dcd 500 2dWCA_T0.1_d1.0_N${run_steps}.dcd
dump           2 all dcd 500 2dWCA_T0.1_d1.0_N100000.dcd
fix 1 all nvt temp ${initial_temperature} ${final_temperature} ${tau}
fix 1 all nvt temp 3 ${final_temperature} ${tau}
fix 1 all nvt temp 3 0.1 ${tau}
fix 1 all nvt temp 3 0.1 1

run ${run_steps}
run 100000
Generated 0 of 0 mixed pair_coeff terms from geometric mixing rule
Per MPI rank memory allocation (min/avg/max) = 3.083 | 3.083 | 3.083 Mbytes
   Step          Temp          E_pair         E_mol          TotEng         Press     
     50000   3.1444896      1.7294347      0              4.8660631      33.464448    
     50500   3.1891477      1.4132825      0              4.5944573      29.482949    
     51000   3.1592064      1.7483107      0              4.8996191      33.944885    
     51500   3.2704448      1.4131183      0              4.6753869      29.245244    
     52000   3.0371824      1.6707219      0              4.7003114      32.853182    
     52500   2.8757144      1.5748863      0              4.4434114      30.811997    
     53000   2.9341566      1.5800182      0              4.5068395      31.333383    
     53500   2.7915358      1.5429852      0              4.3275421      30.961968    
     54000   3.1250585      1.4747748      0              4.5920207      29.819282    
     54500   3.1140261      1.6035775      0              4.7098185      31.880588    
     55000   2.9836076      1.493928       0              4.4700765      30.057177    
     55500   2.6560775      1.6098542      0              4.2592916      30.78873     
     56000   2.8376919      1.4035388      0              4.2341364      29.21437     
     56500   2.9389387      1.4331463      0              4.3647376      29.09511     
     57000   3.1941994      1.5080739      0              4.6942878      30.35447     
     57500   2.897628       1.4416035      0              4.3319874      29.609446    
     58000   2.8124526      1.4630965      0              4.268518       29.31403     
     58500   2.9143127      1.4274657      0              4.3344926      29.414773    
     59000   2.6868974      1.6187822      0              4.2989624      31.682951    
     59500   2.7242053      1.5577631      0              4.2751579      30.784406    
     60000   2.7119186      1.5736855      0              4.2788243      31.070636    
     60500   2.7564325      1.4314993      0              4.1810406      29.019289    
     61000   2.6317297      1.4056332      0              4.0307836      28.623527    
     61500   2.8271384      1.1061835      0              3.9262541      24.39956     
     62000   2.7441762      1.2519348      0              3.9892506      26.926014    
     62500   2.8351221      1.0261654      0              3.8541997      23.475462    
     63000   2.5704031      1.2026035      0              3.7665806      25.306693    
     63500   2.5281735      1.2263622      0              3.7482152      26.054121    
     64000   2.4165571      1.2985689      0              3.7090845      27.305793    
     64500   2.313215       1.3155037      0              3.6229357      27.811759    
     65000   2.5642347      1.3033464      0              3.8611705      27.494195    
     65500   2.3789447      1.3322376      0              3.705235       27.448657    
     66000   2.5625245      1.1294165      0              3.6855347      24.715768    
     66500   2.5478794      1.1119065      0              3.6534162      25.086524    
     67000   2.5044569      1.261641       0              3.7598368      27.011003    
     67500   2.4093973      1.2821583      0              3.6855321      27.196358    
     68000   2.3941387      1.4439661      0              3.8321195      29.62875     
     68500   2.4344712      1.0994871      0              3.5278722      23.921722    
     69000   2.4361246      1.2818118      0              3.7118462      26.718563    
     69500   2.3170117      1.0798343      0              3.3910534      24.599955    
     70000   2.445039       1.1742188      0              3.6131452      25.149674    
     70500   2.3599878      1.2660267      0              3.6201145      26.528568    
     71000   2.5747763      1.4386806      0              4.00702        29.068952    
     71500   2.4674061      1.0363492      0              3.4975868      23.559284    
     72000   2.1930843      1.2110472      0              3.3986488      25.524963    
     72500   2.4679132      1.2578217      0              3.7195651      26.963428    
     73000   2.4752545      1.3207215      0              3.7897879      27.060454    
     73500   2.2603043      1.1532363      0              3.4078899      25.109085    
     74000   2.4038407      0.88617475     0              3.2840058      21.229966    
     74500   2.3519278      1.0405887      0              3.3866367      23.541792    
     75000   2.4036198      1.1401503      0              3.537761       24.890128    
     75500   2.2888781      1.1439921      0              3.427148       24.877747    
     76000   2.3851183      1.1556055      0              3.534761       25.041976    
     76500   2.2357685      1.3620567      0              3.5922358      27.71047     
     77000   2.3629157      1.1260596      0              3.483068       24.376582    
     77500   2.2925991      1.0911301      0              3.3779978      23.7937      
     78000   2.3247298      1.0485238      0              3.3674417      23.594351    
     78500   2.2136925      1.1560625      0              3.3642207      24.859064    
     79000   2.3724262      1.0883025      0              3.4547976      23.904324    
     79500   2.088339       1.1433343      0              3.2264524      25.193902    
     80000   2.2763473      0.98742581     0              3.2580823      22.273716    
     80500   2.1015666      0.98280903     0              3.0791217      22.155264    
     81000   2.051263       0.94527083     0              2.9914057      20.709835    
     81500   2.0423913      0.92719229     0              2.9644776      21.322518    
     82000   2.0688071      0.93180854     0              2.9954436      21.322919    
     82500   2.047082       0.94413874     0              2.9861031      21.463111    
     83000   1.7711341      1.0150335      0              2.7817397      22.949311    
     83500   1.8725818      0.97547487     0              2.8433752      21.54644     
     84000   1.9737824      0.90672345     0              2.8755714      21.188828    
     84500   1.8358767      1.0486839      0              2.8799709      23.083462    
     85000   2.0121167      0.89918009     0              2.9062665      21.077029    
     85500   1.8553878      0.80742863     0              2.6581779      19.004199    
     86000   2.0187118      0.8561695      0              2.8698346      20.51555     
     86500   2.0189425      0.94555972     0              2.9594548      22.371111    
     87000   1.8662396      0.93892697     0              2.8005009      21.623887    
     87500   1.8619922      0.96446477     0              2.821802       21.901598    
     88000   1.9900527      0.90813417     0              2.8932117      21.180339    
     88500   1.8836831      0.96735242     0              2.8463263      22.208685    
     89000   1.8365336      0.94947569     0              2.781418       21.696786    
     89500   1.9393371      0.88296727     0              2.8174561      20.297289    
     90000   2.0155363      0.88082868     0              2.8913262      20.676827    
     90500   1.9003462      0.88679829     0              2.7823936      20.47435     
     91000   1.8835669      0.79068275     0              2.6695407      18.704913    
     91500   1.7870206      0.81401124     0              2.5965643      19.724833    
     92000   1.7865693      0.73386564     0              2.5159685      18.659509    
     92500   1.7378945      0.75725934     0              2.4908091      18.344914    
     93000   1.7359089      0.75651287     0              2.488082       18.400079    
     93500   1.637008       0.8027218      0              2.4356373      19.367437    
     94000   1.5663222      0.81098307     0              2.3733895      19.4723      
     94500   1.6745471      0.79120116     0              2.4615619      19.19749     
     95000   1.7342761      0.67901294     0              2.4089533      17.34975     
     95500   1.7440789      0.73407605     0              2.4737948      18.482986    
     96000   1.6153911      0.73051564     0              2.3418683      18.331158    
     96500   1.7227391      0.65062116     0              2.3690534      16.575299    
     97000   1.6015693      0.75321564     0              2.350781       18.410427    
     97500   1.6751012      0.7035517      0              2.3744652      17.459498    
     98000   1.5995998      0.7102032      0              2.305804       17.258003    
     98500   1.5892326      0.63509085     0              2.2203504      16.55112     
     99000   1.4270264      0.73981642     0              2.1632752      17.556752    
     99500   1.4487514      0.59791918     0              2.0430487      15.700661    
    100000   1.4633287      0.60319022     0              2.0628606      15.60744     
    100500   1.4668684      0.66142972     0              2.1246309      16.705865    
    101000   1.5277001      0.68987618     0              2.213757       17.897282    
    101500   1.692078       0.55487203     0              2.2427199      15.290824    
    102000   1.5331194      0.60522459     0              2.1345112      15.567261    
    102500   1.4486884      0.69374694     0              2.1388136      17.034575    
    103000   1.4246689      0.62670319     0              2.0478105      16.097967    
    103500   1.4326681      0.69488789     0              2.1239744      17.020584    
    104000   1.4977764      0.54477606     0              2.038808       14.991496    
    104500   1.4677868      0.62298477     0              2.0871021      15.918119    
    105000   1.388149       0.57608551     0              1.9607641      15.637551    
    105500   1.4086562      0.4792368      0              1.8843714      13.236324    
    106000   1.3854808      0.48117579     0              1.8631928      13.753979    
    106500   1.3451935      0.4837497      0              1.8255802      13.619831    
    107000   1.1606753      0.54880572     0              1.7065793      14.503137    
    107500   1.3053659      0.4708332      0              1.7729356      13.057435    
    108000   1.3288475      0.51751845     0              1.8430439      13.883554    
    108500   1.3534852      0.50594777     0              1.8560493      13.497244    
    109000   1.3429358      0.51715343     0              1.8567319      14.062273    
    109500   1.2926785      0.49405178     0              1.7834986      13.541717    
    110000   1.2460241      0.48635821     0              1.7292673      13.031808    
    110500   1.2656662      0.39784278     0              1.6603448      12.123362    
    111000   1.2590098      0.4331186      0              1.6889809      12.312997    
    111500   1.1800151      0.51455102     0              1.6916161      14.030563    
    112000   1.2073596      0.43651749     0              1.6408587      12.746024    
    112500   1.1371509      0.51523422     0              1.6495423      14.228391    
    113000   1.1035037      0.48844582     0              1.5891907      13.647146    
    113500   1.1138525      0.42398714     0              1.535055       12.223343    
    114000   1.0334596      0.44087127     0              1.4717472      12.244553    
    114500   1.1484322      0.41572895     0              1.5612901      12.097333    
    115000   1.1759612      0.38939762     0              1.5624189      11.584665    
    115500   1.1704192      0.4172455      0              1.5847386      12.194661    
    116000   1.2039073      0.43459204     0              1.6354895      12.59645     
    116500   1.0660816      0.4023794      0              1.4657958      11.55012     
    117000   1.0347666      0.41510594     0              1.4472856      11.931901    
    117500   1.0283417      0.40053104     0              1.4263019      11.464621    
    118000   1.0388545      0.38142489     0              1.4176823      11.679227    
    118500   1.0900618      0.36440558     0              1.4517422      10.821981    
    119000   0.99756241     0.38709711     0              1.3821656      11.409617    
    119500   1.0512451      0.35179425     0              1.4004112      10.829974    
    120000   0.95913739     0.34547317     0              1.3022127      10.37264     
    120500   0.95024099     0.36118496     0              1.3090503      10.958673    
    121000   0.89788461     0.39618445     0              1.2918243      11.49544     
    121500   0.92642081     0.35188809     0              1.2759928      10.985664    
    122000   0.8899194      0.35534926     0              1.2430439      10.805735    
    122500   0.81818101     0.32813414     0              1.1442697      10.020726    
    123000   0.85432667     0.30480168     0              1.1569925      9.5898651    
    123500   0.77806794     0.29422138     0              1.0703442      9.3767072    
    124000   0.80020135     0.26634049     0              1.0645413      8.9546902    
    124500   0.8346537      0.24871422     0              1.0812813      8.6025648    
    125000   0.79366544     0.31149053     0              1.1031718      9.5351232    
    125500   0.78804458     0.26735116     0              1.0534256      8.9485688    
    126000   0.91124328     0.24678075     0              1.1557459      8.4021573    
    126500   0.7586586      0.33115847     0              1.0879204      10.227078    
    127000   0.76468791     0.25364667     0              1.0164229      8.1873211    
    127500   0.76255782     0.24548531     0              1.0061367      8.4972928    
    128000   0.7201555      0.31204739     0              1.0304025      9.8872313    
    128500   0.83058134     0.26609368     0              1.0945986      9.1574582    
    129000   0.75345824     0.25754303     0              1.0091176      8.7773885    
    129500   0.72475474     0.22947324     0              0.9524161      8.0611537    
    130000   0.63971765     0.24210709     0              0.88022545     8.0923227    
    130500   0.64881553     0.22964752     0              0.87684101     7.941436     
    131000   0.60288952     0.19799562     0              0.79937792     7.0857812    
    131500   0.62798997     0.18573821     0              0.81215821     6.7747135    
    132000   0.58141608     0.17279271     0              0.75275525     6.4875356    
    132500   0.57043129     0.20182895     0              0.77083416     6.9824587    
    133000   0.63410819     0.13639925     0              0.76892217     5.6055062    
    133500   0.56534163     0.17787402     0              0.74180229     6.6714498    
    134000   0.50327133     0.19240247     0              0.69441563     6.918648     
    134500   0.55415068     0.1705452      0              0.72331051     6.7429667    
    135000   0.54232481     0.19939581     0              0.74036481     7.3475015    
    135500   0.59132129     0.16509996     0              0.75494294     6.110044     
    136000   0.53087034     0.1825095      0              0.71205266     6.8223491    
    136500   0.49563074     0.1835888      0              0.67798046     6.7171665    
    137000   0.48300385     0.143306       0              0.62510234     5.8875401    
    137500   0.49032135     0.12258769     0              0.61168324     5.1703138    
    138000   0.44862406     0.1337154      0              0.5812179      5.5382616    
    138500   0.43538142     0.12395473     0              0.5582477      5.1869894    
    139000   0.41495188     0.13121053     0              0.54512503     5.3827453    
    139500   0.43283589     0.10685771     0              0.53861151     4.7370725    
    140000   0.41722356     0.11875294     0              0.53493344     5.1529285    
    140500   0.42664022     0.10756829     0              0.53314191     4.678835     
    141000   0.37245345     0.094544287    0              0.46606661     4.4086573    
    141500   0.36174012     0.10173231     0              0.46256808     4.408614     
    142000   0.3368425      0.082949372    0              0.41894976     3.8766673    
    142500   0.3129113      0.081247439    0              0.39337646     3.9111688    
    143000   0.31699108     0.065887243    0              0.38208585     3.4746945    
    143500   0.30526084     0.084400413    0              0.3888981      3.895606     
    144000   0.26447937     0.07076936     0              0.33458753     3.5460388    
    144500   0.25774627     0.063204992    0              0.3203069      3.3290469    
    145000   0.25823163     0.058155503    0              0.31574155     3.1588709    
    145500   0.24642642     0.057546438    0              0.30335679     3.1035098    
    146000   0.24361046     0.050961329    0              0.29396276     3.0166384    
    146500   0.21517067     0.046589138    0              0.26122188     2.7468063    
    147000   0.19464359     0.052618403    0              0.24677539     2.9605211    
    147500   0.17816741     0.045217135    0              0.22293913     2.6541215    
    148000   0.15785511     0.031981535    0              0.18944201     2.1427535    
    148500   0.14314785     0.022976157    0              0.16576614     1.7414946    
    149000   0.12439895     0.022809263    0              0.14689721     1.6560283    
    149500   0.11056665     0.023938288    0              0.13422852     1.7683002    
    150000   0.10600628     0.015591204    0              0.12133246     1.2395324    
Loop time of 3.17316 on 1 procs for 100000 steps with 400 atoms

Performance: 27228339.810 tau/day, 31514.282 timesteps/s, 12.606 Matom-step/s
99.0% CPU use with 1 MPI tasks x 1 OpenMP threads

MPI task timing breakdown:
Section |  min time  |  avg time  |  max time  |%varavg| %total
---------------------------------------------------------------
Pair    | 1.1609     | 1.1609     | 1.1609     |   0.0 | 36.58
Neigh   | 1.1701     | 1.1701     | 1.1701     |   0.0 | 36.87
Comm    | 0.14517    | 0.14517    | 0.14517    |   0.0 |  4.57
Output  | 0.010366   | 0.010366   | 0.010366   |   0.0 |  0.33
Modify  | 0.51538    | 0.51538    | 0.51538    |   0.0 | 16.24
Other   |            | 0.1713     |            |       |  5.40

Nlocal:            400 ave         400 max         400 min
Histogram: 1 0 0 0 0 0 0 0 0 0
Nghost:            109 ave         109 max         109 min
Histogram: 1 0 0 0 0 0 0 0 0 0
Neighs:           1170 ave        1170 max        1170 min
Histogram: 1 0 0 0 0 0 0 0 0 0

Total # of neighbors = 1170
Ave neighs/atom = 2.925
Neighbor list builds = 23997
Dangerous builds = 0
Total wall time: 0:00:05
